LAMMPS (19 May 2017)
Processor partition = 12
  using 1 OpenMP thread(s) per MPI task
# gREM variables
variable        lambda world 1000 1005 1010 1015 1020 1025 1030 1035 1040 1045 1050 1055 1060 1065 1070 1075
variable        walker world 0 1 2 3 4 5 6 7 8 9 10 11 12 13 14 15
variable        replica world 0 1 2 3 4 5 6 7 8 9 10 11 12 13 14 15

variable        T0 equal 300.0
variable        press equal 0.0

units           real
atom_style      full
pair_style      lj/cut 5.0

# LJ particles
read_data       init_restart_file
  orthogonal box = (1.27034 1.27034 1.27034) to (23.7297 23.7297 23.7297)
  1 by 1 by 1 MPI processor grid
  reading atoms ...
  500 atoms
  reading velocities ...
  500 velocities
  0 = max # of 1-2 neighbors
  0 = max # of 1-3 neighbors
  0 = max # of 1-4 neighbors
  1 = max # of special neighbors

#dump            dump all xyz 1000 ${rep}/dump.xyz

fix             fxnpt all npt temp ${T0} ${T0} 1000.0 iso ${press} ${press} 10000.0
fix             fxnpt all npt temp 300 ${T0} 1000.0 iso ${press} ${press} 10000.0
fix             fxnpt all npt temp 300 300 1000.0 iso ${press} ${press} 10000.0
fix             fxnpt all npt temp 300 300 1000.0 iso 0 ${press} 10000.0
fix             fxnpt all npt temp 300 300 1000.0 iso 0 0 10000.0
fix             fxgREM all grem ${lambda} -.03 -30000 fxnpt
fix             fxgREM all grem 1060 -.03 -30000 fxnpt
thermo_modify   press fxgREM_press

thermo          50
thermo_style    custom step temp f_fxgREM pe etotal press vol
WARNING: New thermo_style command, previous thermo_modify settings will be lost (../output.cpp:705)
timestep        1.0

temper/grem     100000 1000 ${lambda} fxgREM fxnpt 10294 98392 #${walker}
temper/grem     100000 1000 1060 fxgREM fxnpt 10294 98392 
Neighbor list info ...
  update every 1 steps, delay 10 steps, check yes
  max neighbors/atom: 2000, page size: 100000
  master list distance cutoff = 7
  ghost atom cutoff = 7
  binsize = 3.5, bins = 7 7 7
  1 neighbor lists, perpetual/occasional/extra = 1 0 0
  (1) pair lj/cut, perpetual
      attributes: half, newton on
      pair build: half/bin/newton
      stencil: half/bin/3d/newton
      bin: standard
Per MPI rank memory allocation (min/avg/max) = 5.728 | 5.728 | 5.728 Mbytes
Step Temp f_fxgREM PotEng TotEng Press Volume 
       0    299.42262      262.507      -3416.9   -2971.5315    1317.0315    11328.967 
      50    222.46359    259.67177   -3322.3925   -2991.4947    4138.3009    11329.353 
     100    186.84712     258.4448   -3281.4933   -3003.5724    5451.4247     11331.51 
     150    198.83041    258.86839   -3295.6129   -2999.8677    4923.3348    11336.102 
     200    207.49888    259.17811   -3305.9369    -2997.298    4580.8231    11342.948 
     250    216.01454    259.42326   -3314.1087   -2992.8034     4215.613    11351.878 
     300    215.51006    259.32362   -3310.7872   -2990.2323    4149.1719    11362.744 
     350    210.46863    259.10292   -3303.4308   -2990.3746    4175.1588    11375.511 
     400    213.60531    259.07589   -3302.5296   -2984.8079    3880.9967    11390.177 
     450    220.62475    259.26964   -3308.9879   -2980.8254    3464.2948    11406.604 
     500    210.98428    258.92801   -3297.6003   -2983.7772    3563.3222    11424.639 
     550    213.99104    258.85996    -3295.332   -2977.0365    3312.2866    11444.289 
     600    218.99134    259.08863   -3302.9542   -2977.2212    2874.9827    11465.438 
     650    219.89764    259.03667   -3301.2222   -2974.1412     2539.703    11487.888 
     700    215.31689    258.72264   -3290.7546   -2970.4871    2466.3222    11511.462 
     750    209.13012    258.42042   -3280.6808   -2969.6156    2404.9732     11536.12 
     800    212.26256     258.4933   -3283.1099   -2967.3854    1984.0633    11561.792 
     850    213.49544    258.44209   -3281.4029   -2963.8446    1612.8207    11588.278 
     900    209.58446    258.19213   -3273.0711   -2961.3301     1457.419    11615.394 
     950    205.68552    257.92544   -3264.1815   -2958.2399    1339.2443    11643.026 
    1000    218.98143    258.34321   -3278.1069   -2952.3886    599.84327    11671.046 
    1050    213.70673    258.01961   -3267.3203   -2949.4478    532.77246    11699.146 
    1100    215.08242     258.0101   -3267.0034   -2947.0846    227.35323    11727.205 
    1150    205.49403    257.57345   -3252.4484   -2946.7916    279.42888    11755.088 
    1200    204.84129    257.43364   -3247.7879    -2943.102    72.607972    11782.749 
    1250    203.74946    257.28464   -3242.8215   -2939.7596   -116.75448     11810.09 
    1300    210.36454    257.34015   -3244.6718   -2931.7705   -531.37333    11836.975 
    1350    220.04398    257.62933    -3254.311   -2927.0123    -1034.286    11863.179 
    1400     215.2129    257.28285   -3242.7616   -2922.6487     -1073.97    11888.459 
    1450    214.66633    257.19356   -3239.7853   -2920.4854   -1333.4032    11912.741 
    1500    217.14984    257.12781   -3237.5937   -2914.5997   -1538.7042    11935.894 
    1550    208.01164    256.65843   -3221.9477   -2912.5462     -1341.76     11957.84 
    1600    209.22842    256.52081   -3217.3604    -2906.149   -1508.9304    11978.631 
    1650    197.68929    255.97993   -3199.3309   -2905.2831   -1221.4705    11998.241 
    1700    199.66275    255.87702   -3195.9005   -2898.9173   -1322.1271    12016.784 
    1750    213.72544    256.30565   -3210.1883   -2892.2879   -1926.3266    12034.206 
    1800    215.30759    256.21546   -3207.1819   -2886.9282   -2056.3702    12050.242 
    1850    208.96381    255.88143   -3196.0477   -2885.2299   -1912.3482    12064.837 
    1900    222.42672    256.23019   -3207.6729     -2876.83   -2369.7104    12078.028 
    1950    219.15515     255.9768   -3199.2267     -2873.25   -2216.2178    12089.659 
    2000    216.67527    255.78147   -3192.7155   -2870.4275   -2099.2117    12099.797 
    2050    218.48315    260.75411   -3191.8037   -2866.8266   -2134.0232    12108.528 
    2100    210.21738      260.363   -3178.7667   -2866.0843   -1840.3152    12115.899 
    2150    218.86702    260.57284   -3185.7614   -2860.2133   -2093.6604    12122.037 
    2200    223.42036    260.62065   -3187.3551   -2855.0342   -2215.4423     12126.88 
    2250     223.3925    260.50958   -3183.6528   -2851.3734   -2098.2113    12130.365 
    2300    210.26854    259.89461   -3163.1535    -2850.395   -1571.0761    12132.603 
    2350    214.04646    259.92309   -3164.1031   -2845.7252   -1612.5559    12133.839 
    2400    223.24691    260.06326   -3168.7754   -2836.7125   -1712.7295    12134.098 
    2450    226.00142     260.0939   -3169.7966   -2833.6366    -1677.306    12133.355 
    2500    224.77318    259.90777   -3163.5922   -2829.2591   -1469.1446    12131.641 
    2550    228.51911    259.95126    -3165.042   -2825.1372   -1450.9832    12129.075 
    2600    236.03395    260.13717    -3171.239   -2820.1564   -1542.8384    12125.677 
    2650    222.01256    259.62827   -3154.2756   -2824.0488   -957.69527    12121.466 
    2700    230.38303    259.78845   -3159.6149   -2816.9376   -1056.3962    12116.688 
    2750    234.37821     259.8359   -3161.1966   -2812.5768   -1057.0667    12111.358 
    2800    238.34528    259.79789   -3159.9296    -2805.409   -985.37579    12105.459 
    2850    235.71991    259.62103   -3154.0344   -2803.4189   -681.54595    12099.065 
    2900    239.85407    259.63684   -3154.5613   -2797.7966   -593.40413     12092.32 
    2950     238.8633    259.54528   -3151.5093   -2796.2183    -445.1508    12085.286 
    3000      248.234    259.83325   -3161.1085   -2791.8792   -651.68377    12078.029 
    3050    257.65098    255.02122    -3167.374   -2784.1377   -783.01502    12070.456 
    3100    247.28144    254.54321   -3151.4402   -2783.6278   -165.85932    12062.515 
    3150    254.44758    254.75613   -3158.5378   -2780.0663   -163.08935    12054.476 
    3200    259.73868    254.81142   -3160.3805   -2774.0389   -157.14883    12046.384 
    3250    254.61077    254.56881   -3152.2938   -2773.5796    238.23903    12038.249 
    3300    261.96048    254.75102   -3158.3674    -2768.721    285.83691    12030.243 
    3350    271.57491    254.95011   -3165.0038   -2761.0567    227.26892      12022.4 
    3400    271.11799    254.93264   -3164.4214   -2761.1539    463.21297    12014.694 
    3450    261.84436    254.36485    -3145.495   -2756.0214    1036.1744    12007.269 
    3500    272.72435    254.58684   -3152.8946   -2747.2379    863.19134    12000.351 
    3550     269.5693    254.45919   -3148.6398   -2747.6759    1044.5727    11993.897 
    3600     279.0989    254.70567   -3156.8557   -2741.7172    978.57288    11987.939 
    3650    273.01678    254.36204   -3145.4012   -2739.3094    1479.9094    11982.492 
    3700    274.74167    254.32045   -3144.0149   -2735.3574     1576.118    11977.757 
    3750    276.64956    254.26261   -3142.0872   -2730.5919     1513.245    11973.798 
    3800    278.34097    254.19668   -3139.8894   -2725.8783    1584.0646    11970.556 
    3850    282.20317    254.31054   -3143.6846   -2723.9288    1597.7433    11968.067 
    3900    296.58368    254.77227   -3159.0757     -2717.93     1271.812    11966.303 
    3950    277.92292    254.04365   -3134.7883    -2721.399    2052.5163     11965.16 
    4000    270.58965    253.72368   -3124.1226    -2721.641    2335.3793    11964.955 
    4050    288.35424    259.32162   -3144.0541   -2715.1491    1638.5563    11965.799 
    4100    298.14428    259.55424    -3151.808    -2708.341    1351.2988    11967.396 
    4150    285.80744    258.90603   -3130.2011   -2705.0842    1889.2321    11969.611 
    4200    301.96356    259.43779   -3147.9264   -2698.7785    1416.1479    11972.589 
    4250    286.16475    258.71712   -3123.9039   -2698.2556    2049.8564    11976.227 
    4300    286.24357    258.62629   -3120.8763   -2695.1107    2203.7619    11980.736 
    4350    295.21683    258.95632   -3131.8772   -2692.7646    1969.6682    11986.204 
    4400    292.03167    258.68575   -3122.8583   -2688.4833    2196.6309    11992.556 
    4450    303.80927    259.09574   -3136.5246   -2684.6314    1733.8227    11999.835 
    4500    304.92255    258.97987   -3132.6625   -2679.1133     1641.386    12007.857 
    4550    297.90256    258.64655   -3121.5518   -2678.4443    1915.1946    12016.542 
    4600    296.16667    258.45544   -3115.1813   -2674.6558    1983.8012    12026.005 
    4650    294.51111    258.30528   -3110.1761   -2672.1131    1916.2043    12036.304 
    4700    304.57191    258.58473    -3119.491   -2666.4634    1463.0998    12047.372 
    4750    302.73158    258.41373   -3113.7909   -2663.5006    1466.5489    12058.996 
    4800    292.29978    257.89569   -3096.5229   -2661.7492    1781.1308    12071.169 
    4850    285.82721    257.64417   -3088.1388   -2662.9925    1919.7715    12084.035 
    4900    284.13229    257.47507   -3082.5025   -2659.8772    1865.4299    12097.673 
    4950    300.36626    258.12884   -3104.2948   -2657.5227    1156.8943    12111.999 
    5000    306.21885    258.29909   -3109.9698   -2654.4924    928.15718    12126.706 
    5050    302.99233    253.11656   -3103.8855   -2653.2074     1037.896    12141.644 
    5100    298.42485     252.8637   -3095.4565   -2651.5722     1074.613    12156.872 
    5150    302.43888    252.92094   -3097.3646   -2647.5097    780.66004    12172.371 
    5200    298.36003    252.59495   -3086.4983   -2642.7104    772.05486     12187.99 
    5250    299.93392    252.50512   -3083.5041   -2637.3751    622.48611     12203.73 
    5300    315.79599    252.95006   -3098.3353   -2628.6127     37.97213    12219.482 
    5350    316.33029    253.02855   -3100.9518   -2630.4344   -81.477124    12234.957 
    5400    291.10759    252.00448   -3066.8159   -2633.8155     685.6539    12250.126 
    5450    294.29234     252.0951   -3069.8365    -2632.099    505.41481    12265.328 
    5500    295.10211    252.10797   -3070.2658   -2631.3238    455.07498    12280.509 
    5550    278.51143    251.39196   -3046.3986   -2632.1339    880.54508    12295.681 
    5600     294.0724    251.87789   -3062.5964    -2625.186    243.76466    12310.964 
    5650    290.16387     251.6485   -3054.9499   -2623.3531    208.12758    12326.121 
    5700    302.62712    251.99241   -3066.4135   -2616.2786   -353.94337    12341.059 
    5750    298.64447    251.85591   -3061.8637   -2617.6527   -331.83841    12355.527 
    5800    293.27192    251.57273   -3052.4243   -2616.2046   -184.16513    12369.523 
    5850     306.6408    252.01613   -3067.2043   -2611.0994   -729.38262     12383.08 
    5900    302.06269    251.74681    -3058.227   -2608.9317   -636.50706     12395.97 
    5950    297.28692    251.44698   -3048.2326   -2606.0409   -481.11752    12408.213 
    6000    293.74127      251.191   -3039.7001   -2602.7822   -261.88468     12419.91 
    6050    290.54807    251.06495   -3035.4983   -2603.3301    -139.5821     12431.18 
    6100     304.4236    251.48663   -3049.5544   -2596.7474   -660.52906    12442.058 
    6150    300.53362    251.25149   -3041.7163   -2594.6953   -647.37791    12452.341 
    6200    300.78046    251.16418   -3038.8059   -2591.4177   -759.48721    12461.981 
    6250    293.51881    250.88945   -3029.6484   -2593.0614   -677.30589    12470.948 
    6300    290.44527    250.78356   -3026.1188   -2594.1035   -578.78477    12479.288 
    6350     295.6593    250.95144   -3031.7145   -2591.9437   -778.72396    12487.055 
    6400    304.38865    251.09736   -3036.5785   -2583.8235   -1038.3302    12494.153 
    6450    300.76735    250.88616   -3029.5386     -2582.17   -818.19895    12500.449 
    6500    302.42098    250.89469   -3029.8232   -2579.9949   -803.41102    12506.063 
    6550    306.81811    250.99239   -3033.0798   -2576.7111   -948.29468    12510.992 
    6600    292.93942    250.36957   -3012.3189   -2576.5937   -474.55008    12515.206 
    6650    296.39648    250.46896   -3015.6319   -2574.7646   -536.90847    12518.916 
    6700    295.28359    250.38588   -3012.8628   -2573.6508   -451.51039    12522.138 
    6750      300.744    250.52403   -3017.4675   -2570.1336   -658.23885    12524.896 
    6800    298.28256    250.41409    -3013.803   -2570.1303   -570.88466    12527.124 
    6850    297.18969    250.27355   -3009.1182   -2567.0711   -419.93502    12528.858 
    6900    300.84497    250.46729   -3015.5762   -2568.0921   -549.76111    12530.168 
    6950    303.50831     250.4352   -3014.5066   -2563.0609   -610.92888     12531.01 
    7000      305.348    250.38107   -3012.7023   -2558.5203   -661.72866    12531.343 
    7050    302.76944    255.32311   -3010.7703   -2560.4237   -658.90937    12531.147 
    7100    309.69839    255.53641   -3017.8802   -2557.2273    -852.9315     12530.42 
    7150    301.71618    255.20926   -3006.9755   -2558.1955   -528.05043    12529.103 
    7200    297.01758     254.9736     -2999.12   -2557.3288   -295.54731    12527.356 
    7250    301.76147    255.14341   -3004.7802   -2555.9329   -408.19466    12525.305 
    7300    306.71583    255.28169   -3009.3896    -2553.173    -516.0606    12522.895 
    7350    312.16484     255.5073     -3016.91   -2552.5885   -657.82542    12520.067 
    7400    311.45199    255.27601   -3009.2004   -2545.9391   -419.95291    12516.775 
    7450     305.0566    255.00528   -3000.1759   -2546.4273    -58.77782    12513.133 
    7500    319.32121    255.52018   -3017.3393   -2542.3732   -428.12754    12509.303 
    7550    315.93005    255.41099   -3013.6995   -2543.7775    -205.4319    12505.148 
    7600    303.61168    254.87599   -2995.8663    -2544.267    290.75886    12500.792 
    7650    318.31936    255.40697   -3013.5655   -2540.0896   -117.86673    12496.456 
    7700    318.26678    255.38448   -3012.8162   -2539.4184   -61.707535    12491.975 
    7750    316.63151    255.31355   -3010.4518   -2539.4864   -8.9664576    12487.337 
    7800    315.34885    255.31062    -3010.354   -2541.2965    48.040204    12482.578 
    7850    317.21392    255.35148   -3011.7161   -2539.8844    118.41656    12477.731 
    7900    306.61371    254.99698   -2999.8995   -2543.8348     555.6084    12472.867 
    7950    315.90617    255.31234   -3010.4114   -2540.5249    200.87045    12468.159 
    8000    328.84685     255.7549   -3025.1632   -2536.0284   -258.41386    12463.453 
    8050    310.90529    250.05809   -3001.9362   -2539.4882    499.16403    12458.553 
    8100    325.37704    250.61029    -3020.343   -2536.3693    257.18778    12453.735 
    8150    324.04824    250.59081   -3019.6936   -2537.6964    325.03945    12448.974 
    8200    326.38952    250.73297   -3024.4323   -2538.9526    234.05026    12444.253 
    8250    326.01951    250.69634   -3023.2114   -2538.2821    287.84995    12439.552 
    8300     321.7561    250.57927   -3019.3091   -2540.7213     440.6745    12434.877 
    8350    311.30757    250.23477   -3007.8255   -2544.7791    673.88844    12430.333 
    8400    320.20762    250.42846   -3014.2821   -2537.9975    480.03006    12426.023 
    8450    313.60007    250.23713   -3007.9044    -2541.448    608.63542    12421.881 
    8500    336.14292    251.06681   -3035.5603   -2535.5731    -95.31884    12417.888 
    8550    329.18535    250.93878   -3031.2926   -2541.6543    175.19297    12413.759 
    8600    326.15762    250.82357   -3027.4523   -2542.3176    343.54321    12409.575 
    8650    337.57751    251.32953   -3044.3177   -2542.1967   -102.75433    12405.416 
    8700    321.64096    250.93193   -3031.0643   -2552.6477    289.76968    12401.102 
    8750    311.74059    250.59818   -3019.9393   -2556.2488    740.75521    12396.801 
    8800    304.55605     250.4566   -3015.2201   -2562.2161    1095.0114    12392.794 
    8850    314.79013    250.88985   -3029.6616   -2561.4351    774.44764    12389.236 
    8900    312.50454    250.76093   -3025.3644   -2560.5376    750.45234    12386.006 
    8950    310.97031    250.79515    -3026.505   -2563.9602    663.43167    12383.047 
    9000    327.02891    251.46587   -3048.8624   -2562.4317    24.237665    12380.292 
    9050    308.01884    245.90702   -3030.2339   -2572.0792    520.34294    12377.473 
    9100    301.83585     245.6869   -3022.8965   -2573.9386    731.64596    12374.765 
    9150    312.53851     246.1252   -3037.5066   -2572.6293    389.74836     12372.29 
    9200     317.9487    246.32911   -3044.3036    -2571.379    184.98425    12369.883 
    9250     326.0241    246.75805   -3058.6018   -2573.6657   -135.40856    12367.401 
    9300    314.09467    246.40812   -3046.9373   -2579.7452    249.94917    12364.724 
    9350    307.79494     246.3137   -3043.7901   -2585.9685    308.70978    12362.022 
    9400    309.41972    246.41963    -3047.321   -2587.0826    171.29259    12359.323 
    9450    297.07261     245.9946   -3033.1534   -2591.2804    573.02176    12356.607 
    9500    304.85245    246.30802   -3043.6007   -2590.1558    306.92532    12354.027 
    9550    307.02576    246.44459   -3048.1529   -2591.4753    130.30029    12351.479 
    9600    306.90356    246.54845   -3051.6151   -2595.1193    96.661519    12348.852 
    9650    308.59409    246.70556   -3056.8521   -2597.8418    7.4781775     12346.14 
    9700    313.59005    246.95511   -3065.1703   -2598.7289   -186.38261    12343.269 
    9750    291.49388    246.19587   -3039.8623   -2606.2872    502.34122    12340.198 
    9800    301.82835    246.78327   -3059.4423   -2610.4955    85.095986    12337.195 
    9850    305.74301    246.89255   -3063.0851   -2608.3156   -83.905303    12334.119 
    9900    299.17169    246.63972   -3054.6572    -2609.662    114.76358    12330.857 
    9950    300.58018    246.78786   -3059.5952   -2612.5049   0.49297423    12327.489 
   10000    292.47836    246.56117    -3052.039   -2616.9996    196.15686     12324.01 
   10050    296.50518    251.83234    -3061.078    -2620.049    54.239767    12320.479 
   10100    293.11224    251.76879   -3058.9598   -2622.9776    120.69143    12316.866 
   10150    297.79468    252.00932   -3066.9774   -2624.0303   -87.299213    12313.186 
   10200    303.01654    252.23563   -3074.5209   -2623.8068   -212.53398    12309.336 
   10250    297.96362    252.15007   -3071.6691   -2628.4708   -37.279129    12305.262 
   10300    298.63368    252.20388   -3073.4627   -2629.2677     44.14456    12301.027 
   10350    286.80372    251.86395   -3062.1317   -2635.5329     426.6369    12296.721 
   10400      289.739    251.99943   -3066.6478   -2635.6829     260.5468    12292.515 
   10450     304.9015    252.58992   -3086.3308   -2632.8129   -335.42035    12288.303 
   10500    307.82907      252.791   -3093.0334   -2635.1609   -513.65189    12283.816 
   10550    294.21106    252.34274   -3078.0914   -2640.4747    2.0029115    12278.958 
   10600    297.09569    252.50298   -3083.4326   -2641.5253   -16.229125    12273.945 
   10650    297.67228    252.58452   -3086.1505   -2643.3856    1.6807589    12268.816 
   10700    290.51691    252.26287    -3075.429   -2643.3071    357.08782    12263.596 
   10750    298.65925    252.57341   -3085.7805   -2641.5475    134.77412     12258.42 
   10800    293.76084     252.4174     -3080.58   -2643.6331    368.01952    12253.229 
   10850    280.52261    252.06711   -3068.9035   -2651.6474    847.89877    12248.137 
   10900    281.11222    252.08048   -3069.3493   -2651.2162    836.42455    12243.381 
   10950    290.95557    252.48297   -3082.7658   -2649.9915      506.856    12238.948 
   11000    282.64568    252.18626   -3072.8753   -2652.4612    770.49713    12234.709 
   11050    296.43787    252.72536   -3090.8452   -2649.9164     328.7411    12230.711 
   11100    289.13539    252.47524   -3082.5079   -2652.4409    572.24161    12226.821 
   11150    301.26847    252.94638   -3098.2125   -2650.0985     216.1321    12223.076 
   11200    283.96483    252.31447   -3077.1489   -2654.7727    736.02188    12219.398 
   11250    297.48861    252.80675   -3093.5584   -2651.0666    271.97741     12215.93 
   11300    304.14484    253.16472   -3105.4908   -2653.0984    22.334474    12212.504 
   11350    285.40643    252.45667   -3081.8889   -2657.3685    762.49899    12209.012 
   11400    282.56539    252.35833   -3078.6112   -2658.3166    986.79876     12205.78 
   11450    295.16167    252.89314    -3096.438   -2657.4074    502.39935    12202.934 
   11500    297.71999    253.00744    -3100.248   -2657.4121    329.20688    12200.256 
   11550    289.07029    252.65212   -3088.4042    -2658.434     592.4279     12197.65 
   11600    285.36068    252.66229   -3088.7431   -2664.2907    640.32952    12195.208 
   11650    279.11972    252.23083   -3074.3609   -2659.1915    898.08264    12193.014 
   11700     283.1244    252.36608   -3078.8692   -2657.7432    807.15162    12191.167 
   11750    303.42845    253.21135   -3107.0451   -2655.7183    121.43019    12189.578 
   11800    300.05635    253.18991   -3106.3304   -2660.0193    230.09848    12187.966 
   11850    294.69483    252.99098   -3099.6995   -2661.3632    417.56005    12186.347 
   11900    307.40924    253.38963   -3112.9878   -2655.7399    33.370805     12184.78 
   11950    290.93814    252.80423   -3093.4742   -2660.7257    606.98451     12183.15 
   12000    286.46126    252.73234   -3091.0779   -2664.9885    804.86603     12181.68 
   12050     299.1247    248.17137   -3105.7122   -2660.7869    441.48457    12180.485 
   12100    306.89452     248.4185   -3113.9499   -2657.4675    229.47654    12179.385 
   12150    293.57174    247.99372   -3099.7906   -2663.1249    696.04362      12178.3 
   12200    304.91267    248.31706   -3110.5686   -2657.0341    405.19604    12177.393 
   12250    292.09693    247.89166   -3096.3887   -2661.9167    763.77836    12176.583 
   12300    288.96724    247.80273   -3093.4243   -2663.6074    822.64804    12176.025 
   12350    295.86891    247.99891   -3099.9637   -2659.8812    597.80946    12175.767 
   12400    299.61828    248.18087    -3106.029   -2660.3695     458.6812    12175.669 
   12450    287.84525    247.63988   -3087.9959   -2659.8479    858.49019    12175.698 
   12500    283.96567    247.61357   -3087.1189   -2664.7414    979.10373    12176.015 
   12550    280.88105    247.49946   -3083.3153    -2665.526    1043.9419    12176.717 
   12600     284.8308    247.66859   -3088.9531   -2665.2889    826.02492    12177.833 
   12650    295.24839     247.9349   -3097.8299   -2658.6703    496.38304    12179.238 
   12700     298.9645    248.11076    -3103.692    -2659.005    333.65406    12180.769 
   12750    308.65627    248.41182   -3113.7272   -2654.6244    78.916911    12182.317 
   12800     297.9882    247.99384   -3099.7947   -2656.5599    432.45395    12183.789 
   12850    297.07077    247.93197   -3097.7324   -2655.8621    484.36483    12185.309 
   12900    300.40652    248.06618    -3102.206    -2655.374    372.88761    12186.924 
   12950    309.88952    248.31618   -3110.5394   -2649.6022    160.97504    12188.581 
   13000    290.06782    247.56179    -3085.393   -2653.9391    879.12058    12190.218 
   13050     288.1417    252.51309   -3083.7696   -2655.1806    983.05796    12192.142 
   13100     300.5186    253.01109   -3100.3696    -2653.371    532.36194    12194.427 
   13150     294.9113    252.64672    -3088.224   -2649.5658    798.28522      12196.9 
   13200    283.35442    252.29234   -3076.4115   -2654.9433    1063.8631    12199.664 
   13250    293.63397    252.54204   -3084.7347   -2647.9764      598.836    12202.838 
   13300    304.09414    252.96524   -3098.8413   -2646.5243    224.20059    12206.186 
   13350    293.24348    252.52091   -3084.0304   -2647.8529    604.49421     12209.54 
   13400    294.09231    252.48874   -3082.9579   -2645.5179    554.46694    12213.062 
   13450    307.01516    252.98676   -3099.5585   -2642.8967    99.358703    12216.706 
   13500     288.3543    252.31842   -3077.2808   -2648.3757    742.58124     12220.32 
   13550    286.34761    252.23319   -3074.4396   -2648.5192    848.40174    12224.163 
   13600    290.24887    252.27542   -3075.8473   -2644.1241     731.2816    12228.316 
   13650    294.87289    252.40624   -3080.2081    -2641.607     555.5632    12232.712 
   13700    296.81164    252.35919   -3078.6398   -2637.1549    554.61668    12237.259 
   13750    278.75988    251.70983   -3056.9943   -2642.3601    1105.7998    12241.986 
   13800    293.66142    252.27367    -3075.789   -2638.9899    580.57189      12247.1 
   13850    300.73038    252.54771   -3084.9237     -2637.61    347.56306    12252.406 
   13900    302.12621    252.52962   -3084.3208    -2634.931    324.32319    12257.752 
   13950    300.83717    252.44689   -3081.5629   -2634.0904    377.57068    12263.129 
   14000    296.95862    252.20054   -3073.3514   -2631.6479    553.90673    12268.566 
   14050    297.97963    247.17398   -3072.4659   -2629.2438    463.69459    12274.126 
   14100    310.46891    247.47301   -3082.4337   -2620.6348    4.8903328    12279.748 
   14150    305.55027    247.36857   -3078.9525   -2624.4696   -8.1691456    12285.221 
   14200     294.2629    246.90717   -3063.5723   -2625.8785    265.62057    12290.525 
   14250    301.44998    247.05745   -3068.5817   -2620.1977    47.878612    12295.767 
   14300     300.6029     247.0112   -3067.0401    -2619.916     59.66159    12300.894 
   14350     305.7199    247.16785   -3072.2617   -2617.5265   -71.170951     12305.87 
   14400    300.42145    246.91154   -3063.7179   -2616.8637    133.78267    12310.645 
   14450    297.21093    246.79644   -3059.8813   -2617.8026     160.1289    12315.317 
   14500    300.48868    246.90295   -3063.4317   -2616.4776   -32.017089    12319.894 
   14550     311.0464    247.25684   -3075.2279     -2612.57   -414.97268    12324.258 
   14600    295.64448    246.69813   -3056.6043   -2616.8555    62.839653    12328.278 
   14650    302.08056    246.98204    -3066.068   -2616.7461   -101.96848    12332.094 
   14700    302.08012    246.82429   -3060.8097   -2611.4884   -12.407217    12335.706 
   14750    294.03175    246.52199   -3050.7329    -2613.383    235.32519    12339.164 
   14800    303.02638    246.74605   -3058.2017   -2607.4729   -81.579641    12342.541 
   14850     314.7116    247.16709   -3072.2362   -2604.1266   -581.75719    12345.692 
   14900    306.23751    246.82946   -3060.9819   -2605.4769   -230.21789    12348.388 
   14950    292.84319    246.28003   -3042.6676   -2607.0856    420.41023    12350.794 
   15000    300.42313    246.58997    -3052.999   -2606.1423    232.40033     12353.22 
   15050    317.08028    242.17711   -3072.5704   -2600.9375   -375.20794     12355.57 
   15100    294.61051    241.34744   -3044.9147   -2606.7039    276.56816    12357.606 
   15150    299.13106    241.48158    -3049.386   -2604.4512     190.1552    12359.558 
   15200    306.76306    241.76584   -3058.8612   -2602.5744   -98.388887    12361.431 
   15250    304.48877    241.65127   -3055.0423   -2602.1383   -25.057731    12363.066 
   15300    312.08494    241.85753   -3061.9175   -2597.7148   -259.26108    12364.491 
   15350    313.98312    241.87565   -3062.5217   -2595.4956   -312.38051    12365.608 
   15400    303.58775    241.52977   -3050.9922   -2599.4284   -24.575058    12366.378 
   15450    300.85971    241.46468   -3048.8225   -2601.3165    9.4994784    12366.938 
   15500    315.95404    241.98927   -3066.3089   -2596.3513   -445.71152    12367.274 
   15550    309.88154     241.6443   -3054.8099   -2593.8846   -75.264618    12367.231 
   15600    311.68908     241.6755     -3055.85   -2592.2361   -82.376487     12366.94 
   15650    324.60964     242.1328   -3071.0932    -2588.261   -525.58353    12366.387 
   15700    300.66063    241.31137   -3043.7122   -2596.5023    206.83589    12365.432 
   15750    307.12294    241.54092    -3051.364   -2594.5419    6.7474469    12364.345 
   15800     294.9882    241.12674    -3037.558   -2598.7854    364.70921    12363.135 
   15850    311.17873    241.63859   -3054.6198    -2591.765   -73.835832    12361.898 
   15900     317.5541    241.94608   -3064.8694   -2592.5317   -297.06595    12360.465 
   15950    313.06901    241.87416   -3062.4718   -2596.8054   -126.81552    12358.688 
   16000      309.359    241.62706   -3054.2354   -2594.0873    116.21356    12356.674 
   16050    301.31106    236.40904   -3046.9681   -2598.7908    413.54831    12354.558 
   16100    331.02815    237.37307   -3079.1023    -2586.723   -409.58696    12352.399 
   16150     319.5338    236.92178   -3064.0594   -2588.7771   -79.680722    12349.881 
   16200    308.98446    236.62977   -3054.3255   -2594.7345    239.20749    12347.104 
   16250    304.07774    236.52634   -3050.8779   -2598.5853    401.33144    12344.269 
   16300    312.39854    236.81794   -3060.5979   -2595.9287     89.21194    12341.456 
   16350    315.44399    236.99507   -3066.5024   -2597.3034   -82.717031    12338.508 
   16400    305.49424    236.61328   -3053.7761   -2599.3766     200.6266    12335.361 
   16450    324.13527    237.21451    -3073.817   -2591.6903   -300.88503    12332.092 
   16500    305.07189    236.53816   -3051.2721   -2597.5008    287.23044    12328.524 
   16550    319.89306    237.17568   -3072.5227    -2596.706   -201.19487    12324.844 
   16600    306.96602    236.78842   -3059.6138   -2603.0251    167.13292    12320.926 
   16650    302.87833    236.58953   -3052.9844   -2602.4758     367.9221    12316.905 
   16700    311.24221    236.88283   -3062.7609   -2599.8117     199.3058    12312.888 
   16750    316.34352    237.16669   -3072.2229   -2601.6859     134.2604    12308.793 
   16800    310.16425    237.03151   -3067.7169   -2606.3711    297.08296    12304.611 
   16850    318.13297    237.32805   -3077.6015   -2604.4028   -31.040012    12300.355 
   16900     311.8983    237.22863   -3074.2876   -2610.3625    62.988959    12295.914 
   16950     308.4753    237.16995   -3072.3318   -2613.4982    219.58232    12291.337 
   17000    301.38438    236.94706   -3064.9021   -2616.6157     462.3556    12286.707 
   17050     290.3243    241.58643   -3052.8809   -2621.0455    857.17107     12282.17 
   17100    304.40376     242.0929   -3069.7632   -2616.9857    477.91282    12277.887 
   17150    305.78099    242.26634   -3075.5447   -2620.7186    366.53238    12273.722 
   17200    306.11866    242.39083   -3079.6944    -2624.366    349.83817    12269.593 
   17250    312.40009     242.5889   -3086.2965   -2621.6251    214.09064    12265.473 
   17300    297.21019    242.13431   -3071.1438   -2629.0662    667.06661    12261.359 
   17350    300.50069    242.30046    -3076.682     -2629.71    551.72653    12257.407 
   17400    293.58274      242.022   -3067.3999   -2630.7178    815.49707    12253.614 
   17450    312.26683    242.81538   -3093.8459   -2629.3726    240.01984    12250.051 
   17500    303.45206       242.56   -3085.3334   -2633.9714    479.54359    12246.515 
   17550    308.99146    242.77014   -3092.3379   -2632.7365    323.66442    12243.037 
   17600    305.95391    242.76644   -3092.2148   -2637.1316    453.69093    12239.578 
   17650    284.38267    241.96832   -3065.6105   -2642.6129    1243.4346    12236.242 
   17700    286.35662    242.05306   -3068.4354   -2642.5017    1032.8389    12233.386 
   17750    306.06216    242.75725   -3091.9084   -2636.6641    178.68456    12230.896 
   17800    307.93642    242.95832   -3098.6107   -2640.5786    33.291103    12228.369 
   17850    294.42857    242.45698   -3081.8994   -2643.9592    559.95295    12225.733 
   17900    302.95927    242.76528    -3092.176    -2641.547    356.24062    12223.175 
   17950    296.18881    242.59534   -3086.5112   -2645.9528    556.86821    12220.682 
   18000    296.63698    242.67258   -3089.0859   -2647.8609    591.14466    12218.313 
   18050    303.51512    242.90635   -3096.8783   -2645.4225    339.60453     12216.08 
   18100    303.47482    242.91006   -3097.0021   -2645.6063    275.34112    12213.882 
   18150    288.02756    242.47078   -3082.3593   -2653.9401    685.95046    12211.699 
   18200    294.52271    242.66648   -3088.8828   -2650.8026    479.97446    12209.687 
   18250    301.04954    242.89512   -3096.5041   -2648.7157    325.13301     12207.77 
   18300    298.23115    242.82867   -3094.2891   -2650.6928    459.97481     12205.88 
   18350     301.7706    242.91267   -3097.0891   -2648.2282    306.64926    12204.059 
   18400     305.9532    243.17053   -3105.6844   -2650.6022     71.49583    12202.219 
   18450    295.95455    242.86032   -3095.3441   -2655.1342    345.61209    12200.289 
   18500    300.53137    243.11179   -3103.7265   -2656.7088    183.34732    12198.344 
   18550    299.08575    243.07807   -3102.6022   -2657.7348    220.28436    12196.355 
   18600    303.30698    243.14303   -3104.7677   -2653.6215    154.43241    12194.311 
   18650     295.6636    242.89716   -3096.5722    -2656.795    411.00064    12192.192 
   18700    304.23038    243.19679   -3106.5596     -2654.04    157.26015    12190.102 
   18750    291.96696    242.76397   -3092.1324   -2657.8537    568.15377    12187.978 
   18800    292.04221    242.81805    -3093.935   -2659.5444    605.42519     12185.96 
   18850    302.06881    243.10484   -3103.4948   -2654.1903    334.50042    12184.101 
   18900    300.30638     243.0883   -3102.9434   -2656.2604    326.96913    12182.265 
   18950    294.53167    243.01691   -3100.5638   -2662.4702    410.49196    12180.449 
   19000    302.19096     243.3323   -3111.0766   -2661.5904    187.25923    12178.669 
   19050    286.73757    237.71626   -3090.5418   -2664.0414    746.88973    12176.869 
   19100    294.68219    238.15888   -3105.2961   -2666.9787    449.51585    12175.248 
   19150    296.33877    238.24087   -3108.0289   -2667.2475    399.91407      12173.7 
   19200    278.17249    237.61896   -3087.2988   -2673.5383    974.03458    12172.226 
   19250    295.64569    238.10594   -3103.5313   -2663.7807    453.75656    12171.035 
   19300    296.32303    238.10845   -3103.6151   -2662.8571    370.87522    12169.938 
   19350     295.3962    238.12858   -3104.2861   -2664.9066     484.5692    12168.867 
   19400    295.59157    238.14046   -3104.6822   -2665.0121    515.49491     12167.87 
   19450    291.84199    238.05908   -3101.9692   -2667.8764    570.27945    12166.979 
   19500    298.34387    238.23343   -3107.7811   -2664.0172    433.61994    12166.201 
   19550    302.38583    238.45084   -3115.0279   -2665.2519    296.90251    12165.478 
   19600    295.27675    238.23783   -3107.9277   -2668.7259    494.06591    12164.746 
   19650    298.44583    238.39264   -3113.0881   -2669.1726    311.32909    12164.074 
   19700    305.58775    238.71642   -3123.8808   -2669.3422    27.351181    12163.382 
   19750    301.16741    238.47323   -3115.7742   -2667.8105    272.15488    12162.542 
   19800    291.79898    238.15714   -3105.2379   -2671.2091    632.66875    12161.685 
   19850    283.73949    237.85925   -3095.3083   -2673.2673    989.26411    12160.984 
   19900    293.84481      238.143   -3104.7668   -2667.6949    694.12174    12160.601 
   19950    302.80864    238.54396    -3118.132    -2667.727    316.82124     12160.41 
   20000    288.64916    238.01887    -3100.629   -2671.2853    790.65934    12160.267 
   20050    300.94447    238.39066   -3113.0219   -2665.3898    373.43954     12160.32 
   20100    297.31401    238.26145   -3108.7149   -2666.4828    388.89958    12160.417 
   20150    301.19796    238.37457   -3112.4857   -2664.4766    234.70737    12160.527 
   20200    291.81089    238.09655   -3103.2183   -2669.1717    461.13507    12160.594 
   20250     296.9175    238.33126    -3111.042   -2669.3997    281.56932    12160.706 
   20300    304.21652    238.60409   -3120.1365   -2667.6375    63.727466    12160.789 
   20350    304.43835    238.60703   -3120.2342   -2667.4052     86.38282    12160.726 
   20400    291.60321    238.13591   -3104.5304   -2670.7927    508.46983    12160.547 
   20450    296.81749    238.38287   -3112.7623   -2671.2688    408.47633     12160.42 
   20500    297.89002    238.35241    -3111.747   -2668.6582    395.32925    12160.348 
   20550    299.32701    238.35863   -3111.9543    -2666.728    387.05386    12160.302 
   20600    292.39655    238.12734   -3104.2448   -2669.3271    571.98901    12160.302 
   20650    301.33949    238.41436   -3113.8121   -2665.5925    253.55605    12160.404 
   20700    303.71901    238.51257   -3117.0856   -2665.3266    161.32779    12160.473 
   20750    287.79326    238.00171   -3100.0571   -2671.9865    665.97485    12160.482 
   20800    290.72806    238.26437   -3108.8122   -2676.3762    542.99747    12160.625 
   20850    302.24567    238.62067   -3120.6891   -2671.1216    159.69271     12160.88 
   20900    308.68004    238.81682   -3127.2272    -2668.089   -30.096589    12161.054 
   20950    301.52923      238.489   -3116.3001   -2667.7982    338.05621    12161.036 
   21000    274.84427    237.57645   -3085.8818   -2677.0718    1224.7516    12161.058 
   21050    293.57376    243.26641   -3108.8802   -2672.2115    569.86565    12161.496 
   21100    298.63185    243.42873   -3114.2912   -2670.0989    246.18346    12162.098 
   21150     304.6851    243.64255   -3121.4185   -2668.2225   -16.581138    12162.656 
   21200    305.10941     243.7158     -3123.86   -2670.0328    39.284559    12163.042 
   21250    274.42116    242.55764   -3085.2547    -2677.074    1162.3935    12163.344 
   21300    282.13174    242.79989   -3093.3298   -2673.6802    965.14594    12164.038 
   21350    294.13077    243.28784   -3109.5947   -2672.0975    498.01817    12165.097 
   21400    293.01364    243.27933   -3109.3111   -2673.4755    499.12979    12166.273 
   21450    302.01613    243.54062   -3118.0207   -2668.7946    214.57993    12167.534 
   21500      306.732    243.70013   -3123.3376    -2667.097    67.015116    12168.754 
   21550    299.06612    243.38393   -3112.7977   -2667.9595    364.06933    12169.855 
   21600    286.48311    242.85435    -3095.145   -2669.0231    815.23655    12171.002 
   21650     298.9633    243.32731   -3110.9102   -2666.2249    395.88094    12172.366 
   21700     305.8964     243.5458   -3118.1933   -2663.1956    144.66244    12173.791 
   21750    294.42799    243.09036    -3103.012   -2665.0727    542.72758     12175.15 
   21800    290.29822    242.79368   -3093.1228   -2661.3262    681.79921    12176.629 
   21850    300.63407    243.23737   -3107.9123   -2660.7419     269.1592    12178.273 
   21900    286.81862    242.73631   -3091.2103   -2664.5893    647.69909    12179.935 
   21950    290.21906    242.84353   -3094.7842   -2663.1053    552.60398     12181.74 
   22000    297.14592    243.01588   -3100.5292   -2658.5472    319.13824    12183.688 
   22050    298.74435    243.08309   -3102.7698   -2658.4102    285.16657    12185.644 
   22100     288.2952    242.77506   -3092.5019   -2663.6846    652.87662    12187.607 
   22150     298.5842    243.05965   -3101.9882   -2657.8668    427.45266    12189.735 
   22200    309.08368    243.31809   -3110.6029   -2650.8644    238.33707    12191.919 
   22250    304.07458    242.96535    -3098.845   -2646.5571    473.28961    12194.092 
   22300    304.02657    242.90298   -3096.7659   -2644.5495    394.85534    12196.341 
   22350    297.75615    242.67589   -3089.1965   -2646.3067    613.08421    12198.636 
   22400     290.1578    242.38299   -3079.4331   -2647.8453    834.37112    12201.096 
   22450    306.60743    243.05848   -3101.9494   -2645.8941    308.44959    12203.793 
   22500    299.75236    242.71447   -3090.4823   -2644.6234    628.80019    12206.521 
   22550    298.06346    242.64251   -3088.0836   -2644.7368    597.48284    12209.402 
   22600     303.9744    242.72118   -3090.7059   -2638.5671    350.09894    12212.443 
   22650    292.78216    242.32598   -3077.5328   -2642.0415     799.9047    12215.534 
   22700     298.8974    242.49339    -3083.113   -2638.5258    752.30567    12218.872 
   22750    303.76408    242.68888   -3089.6294   -2637.8033    586.61975     12222.46 
   22800    304.01061    242.64789   -3088.2631   -2636.0703    446.00117    12226.197 
   22850    315.21153    242.92797   -3097.5991   -2628.7459   -2.5084639    12229.993 
   22900    305.35677    242.63931    -3087.977    -2633.782    300.45803    12233.658 
   22950    301.09699    242.34357    -3078.119     -2630.26    495.42079    12237.302 
   23000    312.83943    242.73195    -3091.065   -2625.7401    104.20632    12241.003 
   23050    309.83711    242.60591   -3086.8637   -2626.0045    186.51728    12244.607 
   23100    302.89232    242.34114   -3078.0379   -2627.5085    462.49474    12248.155 
   23150    306.93625    242.50548   -3083.5159   -2626.9715    373.29598    12251.758 
   23200    312.04562    242.72573   -3090.8578   -2626.7135    109.22682    12255.382 
   23250    322.44444    243.07115   -3102.3717     -2622.76   -353.38849    12258.869 
   23300    308.57322    242.62698   -3087.5659   -2628.5867    153.79129    12262.024 
   23350    288.18803    241.80326   -3060.1085   -2631.4507    891.92939    12265.101 
   23400     299.5015    242.14823   -3071.6078    -2626.122    435.58126    12268.432 
   23450    298.85434    242.12825   -3070.9417   -2626.4185    310.76863    12271.858 
   23500    299.38686    242.15891   -3071.9637   -2626.6484    300.80804    12275.275 
   23550     297.9707    242.07203   -3069.0678   -2625.8589     344.3014     12278.69 
   23600      320.277    242.84766   -3094.9221   -2618.5344   -341.42413    12282.065 
   23650    303.59124    242.13672   -3071.2238   -2619.6549    165.43591    12285.148 
   23700    308.93479    242.34874   -3078.2912   -2618.7742   -47.547489    12288.095 
   23750    302.16434    242.07366   -3069.1219   -2619.6753    212.12365    12290.893 
   23800    307.85372    242.29211   -3076.4037   -2618.4946    100.92688    12293.614 
   23850    320.60906      242.707   -3090.2333   -2613.3516    -293.7508    12296.191 
   23900    302.64701    242.00601   -3066.8668   -2616.7023    185.57715     12298.49 
   23950    313.99449     242.3666   -3078.8868   -2611.8438   -117.65915    12300.658 
   24000     305.8194    242.02992   -3067.6639   -2612.7807    156.31785    12302.608 
   24050    301.86626    236.97573   -3065.8577   -2616.8545    132.23584    12304.447 
   24100    316.52705    237.46827   -3082.2758   -2611.4658   -409.15709    12306.146 
   24150    310.46145    237.27547   -3075.8491   -2614.0612   -151.46783    12307.462 
   24200    293.18874    236.76455   -3058.8184   -2622.7224    394.17127    12308.512 
   24250    306.37392    237.21275   -3073.7583   -2618.0503    18.316297    12309.524 
   24300    303.09537    237.03391   -3067.7968   -2616.9654    161.70588    12310.389 
   24350     312.1116    237.23859   -3074.6195   -2610.3772   -58.755298    12311.124 
   24400    306.56837    237.12104   -3070.7012    -2614.704    -62.62861    12311.658 
   24450     305.8101    237.11479   -3070.4929   -2615.6236   -84.349861    12311.951 
   24500    291.36266      236.686   -3056.2001   -2622.8203    315.12999    12312.043 
   24550    319.61033    237.73178   -3091.0594   -2615.6632   -596.41037    12312.031 
   24600    328.14841    238.01664   -3100.5547   -2612.4588   -877.49527    12311.524 
   24650     318.2706    237.62535   -3087.5116   -2614.1082   -609.91484    12310.342 
   24700    312.27615    237.42653   -3080.8843   -2616.3972   -475.17964    12308.622 
   24750    304.62322    237.25205   -3075.0683   -2621.9644   -184.79841    12306.464 
   24800    297.78459    237.09232   -3069.7441   -2626.8121    79.440731     12303.99 
   24850    295.87811    237.08368    -3069.456   -2629.3597    40.753449    12301.364 
   24900     299.4126    237.27674   -3075.8912   -2630.5376   -151.59636    12298.572 
   24950    306.45229    237.48371   -3082.7904   -2626.9658   -234.50079    12295.481 
   25000    302.63618    237.38824   -3079.6081   -2629.4597   -38.599535    12292.085 
   25050    308.44928    237.65356    -3088.452   -2629.6571   -320.70841    12288.447 
   25100    301.88814    237.42202   -3080.7339   -2631.6981   -143.79687    12284.458 
   25150    295.13835    237.21779   -3073.9262   -2634.9302    152.55798    12280.196 
   25200    293.60734      237.237   -3074.5668   -2637.8481     225.3984    12275.832 
   25250     308.4588    237.79594   -3093.1981    -2634.389   -275.23239    12271.379 
   25300    299.65476    237.51539   -3083.8464   -2638.1326   -46.628383    12266.626 
   25350     291.5456    237.25904   -3075.3014   -2641.6494    189.99394    12261.654 
   25400    299.20391    237.52837   -3084.2789   -2639.2357   -105.91611    12256.574 
   25450    299.18342    237.62845   -3087.6149   -2642.6023   -171.63098    12251.254 
   25500    296.55842    237.64747    -3088.249   -2647.1408   -43.397954    12245.654 
   25550     300.6399    237.87592   -3095.8639   -2648.6848   -172.47223    12239.829 
   25600    316.89523    238.48324   -3116.1079   -2644.7503   -683.74413    12233.702 
   25650    304.66395    238.10009   -3103.3363   -2650.1718   -222.41735    12227.074 
   25700    296.88538    237.94465   -3098.1551   -2656.5606     22.05802    12220.117 
   25750    294.46511    238.01159   -3100.3863   -2662.3918   -11.237329    12212.969 
   25800    289.57265     237.8912   -3096.3733   -2665.6559    246.14404    12205.642 
   25850     291.0177     237.9975   -3099.9166   -2667.0498    322.94154    12198.255 
   25900     297.4872    238.30243   -3110.0809   -2667.5912    225.94665    12190.843 
   25950    289.53703    238.08374   -3102.7912   -2672.1268    548.61521    12183.407 
   26000    295.54441    238.35514   -3111.8381   -2672.2382    361.02215    12176.059 
   26050    294.85598    238.37461   -3112.4871   -2673.9112    328.93557    12168.738 
   26100    301.44949    238.63426   -3121.1419   -2672.7586     144.2175    12161.398 
   26150    290.60494    238.23286   -3107.7621   -2675.5092    571.38798    12153.997 
   26200    300.34342    238.56095   -3118.6984   -2671.9603    387.07522    12146.687 
   26250    286.22983    238.12779   -3104.2595   -2678.5144     838.7921    12139.459 
   26300    301.91597    238.70041   -3123.3468   -2674.2697    409.39648    12132.438 
   26350    305.22575    238.79576   -3126.5252    -2672.525    343.88133    12125.475 
   26400    291.57629    238.32234   -3110.7446   -2677.0469    738.93744    12118.541 
   26450    304.81634    238.92032   -3130.6775   -2677.2863    371.40528    12111.763 
   26500    297.71888    238.69274   -3123.0912    -2680.257    658.04449     12105.05 
   26550    296.28415    238.54637   -3118.2124   -2677.5122    881.81464    12098.506 
   26600    286.88965    238.29183   -3109.7276    -2683.001    1276.3146    12092.286 
   26650    294.84636    238.57138   -3119.0461   -2680.4844     1094.408    12086.552 
   26700    301.23926    238.72422   -3124.1405     -2676.07    944.02844    12081.232 
   26750    301.68889    238.82787   -3127.5957   -2678.8564    902.56648    12076.246 
   26800    304.85954    238.85894   -3128.6314    -2675.176    879.40097    12071.555 
   26850    304.02999     238.9421   -3131.4034   -2679.1819     913.1176    12067.141 
   26900    289.16266    238.39986   -3113.3287   -2683.2211    1469.7841    12063.071 
   26950    292.06201    238.47424   -3115.8081    -2681.388     1443.739    12059.578 
   27000     295.6891    238.67196   -3122.3987   -2682.5836    1262.2976    12056.671 
   27050    305.74641    238.97589   -3132.5298   -2677.7551     1002.405    12054.243 
   27100    307.15771    239.04477   -3134.8258    -2677.952    963.58013    12052.188 
   27150    305.94418    239.01385   -3133.7951   -2678.7263    926.26338    12050.461 
   27200    302.25352     238.9075     -3130.25   -2680.6708    995.89282    12049.043 
   27250    300.65079    238.86809   -3128.9362   -2681.7409    1070.1203    12047.965 
   27300    296.75515    238.78236   -3126.0785   -2684.6777    1235.9913    12047.286 
   27350    298.07092    238.81015   -3127.0049    -2683.647    1207.6415    12047.083 
   27400    300.24607    238.86469   -3128.8229   -2682.2296    1164.4861    12047.331 
   27450    300.31624    238.87607   -3129.2023   -2682.5046    1146.7049    12048.015 
   27500    290.61536    238.49321   -3116.4403    -2684.172    1529.9508     12049.15 
   27550    298.82447    238.76098   -3125.3661   -2680.8873     1315.581    12050.892 
   27600    307.01975    239.10689   -3136.8963   -2680.2277    920.81679    12053.168 
   27650    307.24794     239.1865     -3139.55    -2682.542    795.13971    12055.758 
   27700     290.9368    238.55344    -3118.448   -2685.7016    1219.6603    12058.635 
   27750    304.22962    238.96707   -3132.2357   -2679.7172    768.28696    12061.936 
   27800    308.25249    239.12683    -3137.561   -2679.0587    631.54617    12065.485 
   27850    293.70128    238.63987   -3121.3289   -2684.4706    1134.8499    12069.217 
   27900     292.8852    238.68423   -3122.8077   -2687.1631     1115.401    12073.346 
   27950    296.32454    238.87428   -3129.1426   -2688.3823    971.77336    12077.893 
   28000    282.63765      238.322   -3110.7332   -2690.3311    1411.9859    12082.818 
   28050    280.27915    238.18566   -3106.1887   -2689.2947     1349.394    12088.307 
   28100    300.89552    238.89163   -3129.7209   -2682.1616    510.19447    12094.311 
   28150    304.64175    239.07633   -3135.8776   -2682.7461     244.3487    12100.454 
   28200    304.13766    239.04725   -3134.9085   -2682.5268    273.71397    12106.564 
   28250    313.65914    239.36359   -3145.4529   -2678.9087   -13.111966     12112.62 
   28300    288.60126    238.39753    -3113.251   -2683.9785    794.33675    12118.561 
   28350    287.15824    238.35002   -3111.6672   -2684.5411    800.95799    12124.703 
   28400    291.39922    238.53243   -3117.7476   -2684.3133    586.91677    12131.091 
   28450    284.57195      238.238   -3107.9334   -2684.6542    731.83122    12137.651 
   28500    299.68513    238.78526   -3126.1755   -2680.4166    147.57437    12144.392 
   28550    300.56365     238.7504   -3125.0132   -2677.9475    128.94649    12151.068 
   28600    290.44402    238.33333   -3111.1109   -2679.0974    492.95588    12157.659 
   28650     295.0179    238.53884   -3117.9614   -2679.1447     193.3719    12164.306 
   28700    299.75804    238.74682   -3124.8939   -2679.0265    -111.2573    12170.886 
   28750    291.67255    238.41165   -3113.7217   -2679.8809    74.435227    12177.258 
   28800    289.57073    238.32246   -3110.7488   -2680.0343     90.45969    12183.473 
   28850    278.87442    237.98201   -3099.4004   -2684.5958    383.53705    12189.587 
   28900    287.40776    238.13592   -3104.5306   -2677.0333    196.96704    12195.701 
   28950     287.0515    238.08877   -3102.9591   -2675.9917      196.003    12201.756 
   29000    289.02762    238.14631    -3104.877   -2674.9704    117.40383    12207.734 
   29050    295.11008    233.17085    -3105.695   -2666.7411   -84.453709    12213.588 
   29100    303.83932    233.50603   -3116.8677   -2664.9297   -508.33055    12219.185 
   29150    288.24856    232.87285   -3095.7617   -2667.0138     -16.4401    12224.365 
   29200    307.12963    233.50223   -3116.7409   -2659.9089   -574.56109    12229.268 
   29250    299.17777    233.13229   -3104.4095   -2659.4053   -310.35606    12233.716 
   29300    290.05935    232.83789   -3094.5964   -2663.1551    -57.97215    12237.796 
   29350    299.61252     233.0989   -3103.2967   -2657.6457   -351.75302    12241.619 
   29400     287.8377    232.54462   -3084.8206   -2656.6838    81.091267    12245.114 
   29450     286.0894    232.44633   -3081.5443    -2656.008    222.63441    12248.443 
   29500     298.0174    232.86926   -3095.6419   -2652.3636   -91.984374    12251.661 
   29550    298.17431    232.73774    -3091.258   -2647.7463   -50.594614    12254.667 
   29600    290.19248    232.41618   -3080.5393      -2648.9    217.20768    12257.448 
   29650    298.60841    232.58698   -3086.2327   -2642.0753  -0.98856486    12260.124 
   29700    319.06567    233.25169   -3108.3896   -2633.8036   -548.56743    12262.588 
   29750    308.41868    232.84099   -3094.6996   -2635.9502   -196.82627    12264.588 
   29800    303.92199    232.64386   -3088.1288   -2636.0679   -121.02462    12266.248 
   29850    295.39967    232.30148   -3076.7159   -2637.3313    91.942943    12267.652 
   29900    301.18115    232.43779   -3081.2596   -2633.2754   -42.371651     12268.88 
   29950    313.36121     232.8341   -3094.4699   -2628.3689   -416.15726    12269.856 
   30000    304.53948     232.4772   -3082.5734    -2629.594    -133.6438    12270.441 
   30050    306.87368    237.49252   -3083.0841   -2626.6327   -132.08357    12270.736 
   30100    311.22918    237.61051    -3087.017   -2624.0872   -216.63948    12270.748 
   30150    308.05677    237.51412   -3083.8042   -2625.5931   -127.03174    12270.458 
   30200    305.54963    237.45265   -3081.7548   -2627.2729    62.143107    12269.909 
   30250    303.56178     237.3097   -3076.9899   -2625.4647    213.88189    12269.204 
   30300    303.20052    237.37577   -3079.1924   -2628.2046    128.17559    12268.405 
   30350    308.02252    237.47329   -3082.4429   -2624.2827    14.760044    12267.477 
   30400    309.11174    237.46461   -3082.1536   -2622.3733    42.653624    12266.375 
   30450      307.909    237.43252   -3081.0839   -2623.0926    122.75573    12265.101 
   30500    307.56021    237.36155   -3078.7183   -2621.2458    86.995018    12263.697 
   30550    316.74902    237.74021   -3091.3404   -2620.2003   -281.63014    12262.115 
   30600    317.38455    237.80396   -3093.4652   -2621.3798   -283.48961    12260.197 
   30650    308.22928    237.52091   -3084.0303   -2625.5626    42.508474     12257.93 
   30700    304.31731    237.35736   -3078.5788   -2625.9299    226.43206    12255.485 
   30750    315.82099    237.80708   -3093.5693   -2623.8095    -195.7547    12252.929 
   30800    319.64286    237.93713   -3097.9045   -2622.4599   -402.62677    12250.081 
   30850    317.07289    237.86047   -3095.3492   -2623.7273   -192.07152    12246.834 
   30900    305.26562     237.4593   -3081.9767   -2627.9173    404.10485    12243.301 
   30950     299.5854    237.27029   -3075.6764   -2630.0658    684.13753     12239.79 
   31000    315.15948    237.83702   -3094.5674   -2625.7915    212.21541    12236.427 
   31050    302.22441    242.38569   -3079.5229    -2629.987    626.15515    12233.024 
   31100    276.83283    241.46071   -3048.6902   -2636.9224    1474.5149    12229.814 
   31150    300.24273    242.29277   -3076.4256   -2629.8373    717.25094    12227.165 
   31200    310.72991    242.68999   -3089.6664   -2627.4792    325.92122    12224.759 
   31250    323.34756    243.22327   -3107.4422   -2626.4872   -67.418283    12222.325 
   31300    294.58669    242.07559   -3069.1862   -2631.0108    927.64713    12219.758 
   31350     306.2193     242.4551   -3081.8368   -2626.3588    533.13849    12217.426 
   31400    308.18776    242.58691   -3086.2303   -2627.8244    376.45345    12215.238 
   31450    310.25176    242.73966   -3091.3221   -2629.8462    433.43357    12213.074 
   31500    308.85624    242.69062   -3089.6874   -2630.2871    497.87986    12210.974 
   31550    314.81612    242.94459    -3098.153   -2629.8879    338.39385    12208.955 
   31600    307.76859    242.68429   -3089.4763   -2631.6938    616.63702    12206.958 
   31650    307.75652    242.67526   -3089.1753   -2631.4108    618.37876    12205.094 
   31700    306.90246    242.63768   -3087.9228   -2631.4286    580.42484    12203.393 
   31750     302.3894    242.57199   -3085.7331   -2635.9517    749.39233    12201.829 
   31800     296.7947    242.39585   -3079.8618   -2638.4021    1014.5717    12200.514 
   31850    300.31214    242.62368    -3087.456   -2640.7644    839.15168     12199.55 
   31900    292.12788    242.39355    -3079.785   -2645.2669    998.13061     12198.88 
   31950    311.24815    243.11289    -3103.763    -2640.805    221.15669    12198.539 
   32000    313.05206    243.20323   -3106.7742    -2641.133     35.56897    12198.182 
   32050    295.00053    242.57681   -3085.8936   -2647.1027     675.0751    12197.699 
   32100    293.02078    242.46196   -3082.0653   -2646.2191    784.79696    12197.393 
   32150      299.079    242.73531   -3091.1771   -2646.3198    500.78829    12197.338 
   32200     302.3719    242.91329   -3097.1097   -2647.3544    300.40303    12197.397 
   32250    306.71487    243.09486   -3103.1622    -2646.947    193.12228    12197.444 
   32300    292.52847    242.64651   -3088.2169    -2653.103      658.869    12197.459 
   32350    304.05518    243.12625   -3104.2084   -2651.9494    234.49769    12197.606 
   32400    307.94198     243.2569   -3108.5635   -2650.5231    66.098714     12197.72 
   32450    302.05836    243.00683   -3100.2276   -2650.9387    276.63649     12197.73 
   32500    313.17891    243.45632   -3115.2106   -2649.3807   -71.366313    12197.686 
   32550    296.40407      242.918   -3097.2668   -2656.3882    484.22354    12197.469 
   32600     284.3381     242.5077   -3083.5901   -2660.6588    859.68098    12197.349 
   32650    304.25529    243.30678   -3110.2259   -2657.6692    112.87195    12197.465 
   32700    294.73105    242.98687   -3099.5624   -2661.1723    275.74256    12197.527 
   32750    293.48249    242.98416   -3099.4721   -2662.9392    203.87301    12197.557 
   32800    298.90174    243.14239   -3104.7462   -2660.1525   -9.7781284    12197.523 
   32850    283.41639    242.59107   -3086.3691   -2664.8087    413.86556    12197.357 
   32900    286.91039    242.81244   -3093.7479   -2666.9904    271.12566    12197.209 
   32950     297.7678    243.31812    -3110.604    -2667.697   -87.650011    12197.037 
   33000    298.45265    243.28633   -3109.5443   -2665.6186   -86.646364    12196.669 
   33050    292.86111    238.14854   -3104.9514   -2669.3427    98.115285    12196.077 
   33100    276.38827    237.57609   -3085.8698   -2674.7632    585.38416    12195.386 
   33150    297.00086    238.29307    -3109.769   -2668.0027   -26.936956    12194.756 
   33200    296.03324    238.19039   -3106.3463   -2666.0193    7.0921957    12193.975 
   33250    289.42406    238.04843   -3101.6143   -2671.1179    169.17242    12193.011 
   33300    294.03018    238.22309   -3107.4362   -2670.0886    39.474334    12191.941 
   33350    299.06035    238.44398   -3114.7993   -2669.9696   -55.552491    12190.695 
   33400    293.01336    238.25182   -3108.3939   -2672.5587    140.09516    12189.239 
   33450    291.55502    238.15379   -3105.1262   -2671.4602    142.22756    12187.674 
   33500    289.60426    238.09582   -3103.1939   -2672.4295    187.62311    12186.011 
   33550    295.06094    238.30277   -3110.0925   -2671.2117    20.475631    12184.255 
   33600    298.21042    238.41557   -3113.8523   -2670.2869    13.015287    12182.327 
   33650    295.54962    238.30598   -3110.1994   -2670.5918    224.29958    12180.232 
   33700    293.81371     238.2914   -3109.7132   -2672.6876    294.79198    12178.068 
   33750    300.84783    238.50439   -3116.8129   -2669.3246   -18.804073     12175.85 
   33800    296.55605      238.442   -3114.7334   -2673.6287    0.4324187    12173.445 
   33850    291.65434    238.23893   -3107.9644   -2674.1507    258.77765    12170.864 
   33900     287.0078    238.10252   -3103.4173   -2676.5149    505.84222    12168.246 
   33950     287.7668    238.07646   -3102.5486   -2674.5173    530.09573    12165.705 
   34000    292.48621    238.21207   -3107.0689   -2672.0179    330.55626    12163.264 
   34050    307.01616    243.71755   -3123.9183    -2667.255   -22.537292    12160.802 
   34100    292.72259    243.30168   -3110.0561   -2674.6534    441.80999      12158.2 
   34150    292.23803     243.2426   -3108.0868   -2673.4049    431.46296    12155.638 
   34200    297.83809    243.44142   -3114.7138   -2671.7022    203.18675    12153.139 
   34250    304.05405    243.65805   -3121.9349   -2669.6775    76.540289    12150.569 
   34300    290.15731    243.16947   -3105.6489   -2674.0619    591.45937    12147.899 
   34350    290.70057    243.25265   -3108.4217   -2676.0266    656.02344    12145.344 
   34400    288.52587    243.09666   -3103.2219   -2674.0615    880.04379    12142.985 
   34450    277.90095    242.68673   -3089.5576    -2676.201    1298.4234    12140.957 
   34500     302.5249    243.57311   -3119.1036   -2669.1207    539.21486    12139.389 
   34550    308.73416    243.69874   -3123.2912   -2664.0725    352.31929    12137.975 
   34600    287.79521    242.93011   -3097.6702   -2669.5967    1059.4491    12136.621 
   34650    288.64209    242.98848    -3099.616   -2670.2828    1047.9283    12135.629 
   34700    298.88819    243.25976   -3108.6585    -2664.085    709.53398    12135.039 
   34750    309.80547    243.61397   -3120.4657   -2659.6535    460.92874    12134.665 
   34800    308.08457    243.50437   -3116.8124     -2658.56     628.4384    12134.397 
   34850    303.02202    243.37069   -3112.3564   -2661.6341    814.59812    12134.286 
   34900    297.80853    243.09321    -3103.107   -2660.1394    984.25027    12134.441 
   34950    303.27737    243.22301   -3107.4338   -2656.3317    879.70901    12134.953 
   35000    315.80401    243.53761   -3117.9205   -2648.1859    634.26562    12135.755 
   35050    303.10183     247.9547     -3098.49   -2647.6489    1133.6315    12136.785 
   35100    300.08276    247.81422   -3093.8074   -2647.4571    1296.2731    12138.259 
   35150    309.25137    248.05489   -3101.8298   -2641.8418    1038.2836    12140.268 
   35200    305.72279    247.78474   -3092.8248   -2638.0853    1308.6382    12142.716 
   35250    309.25291    247.89926   -3096.6421   -2636.6519    1314.5682    12145.707 
   35300    312.23917    247.85442   -3095.1474   -2630.7153    1335.7085    12149.263 
   35350    300.97933     247.3225   -3077.4168   -2629.7328    1718.3419    12153.431 
   35400    316.05636    247.79547   -3093.1823   -2623.0724     1179.853     12158.33 
   35450    299.56197    247.16458   -3072.1527    -2626.577    1637.7159    12163.785 
   35500    305.59163    247.37777    -3079.259   -2624.7146    1406.6063    12169.945 
   35550    324.65464    248.00966   -3100.3221    -2617.423    745.63067    12176.715 
   35600     317.0245     247.6673   -3088.9102   -2617.3602    932.42473    12183.795 
   35650    308.60583    247.46329   -3082.1097   -2623.0819    1121.4196    12191.234 
   35700    308.95952    247.40942    -3080.314   -2620.7601    1094.5586    12199.144 
   35750    301.51213    247.06088    -3068.696   -2620.2196    1266.4863    12207.542 
   35800    304.54813    247.13591    -3071.197   -2618.2048    1044.0173    12216.484 
   35850    305.50266    247.17089    -3072.363    -2617.951    900.17253    12225.874 
   35900    309.10135    247.30504   -3076.8346   -2617.0698    645.60336    12235.636 
   35950     318.8102    247.67574   -3089.1913   -2614.9853    250.81999    12245.607 
   36000    296.73499    246.76816   -3058.9385   -2617.5677    879.44608    12255.657 
   36050    321.51364    247.61155   -3087.0515   -2608.8243    86.583355    12265.954 
   36100    315.89857    247.30346   -3076.7819   -2606.9067     274.5075    12276.229 
   36150    301.63424     246.7424     -3058.08   -2609.4219    661.77975    12286.539 
   36200    314.67488    247.18512   -3072.8372   -2604.7822    121.23822    12297.016 
   36250    308.18632    246.91917   -3063.9722   -2605.5684    178.80573    12307.464 
   36300     310.0984    247.06661   -3068.8871   -2607.6392    3.0777824    12317.865 
   36350    301.20962    246.78269   -3059.4229   -2611.3964    187.24587    12328.159 
   36400    297.50203    246.57227   -3052.4089   -2609.8972    206.84777    12338.409 
   36450    312.10159    247.06409   -3068.8032   -2604.5757   -336.41908    12348.611 
   36500    299.58944    246.61251   -3053.7502   -2608.1336   -98.005596    12358.532 
   36550    301.14566    246.75336   -3058.4454    -2610.514   -356.89326    12368.227 
   36600    301.51332    246.77412   -3059.1373   -2610.6591   -460.81035    12377.597 
   36650    291.16977    246.35582   -3045.1939    -2612.101   -164.68531    12386.595 
   36700    309.29849    246.94079    -3064.693   -2604.6349   -861.91784    12395.299 
   36750    298.24304    246.50214   -3050.0712   -2606.4573   -674.35888    12403.427 
   36800    300.05969    246.60003   -3053.3343   -2607.0183   -771.90218    12410.992 
   36850    286.13674    246.07382    -3035.794   -2610.1873   -331.13378    12418.013 
   36900    290.24912    246.25454   -3041.8181   -2610.0945   -406.74271    12424.659 
   36950    303.56508    246.75094   -3058.3646   -2606.8345   -885.28085     12430.91 
   37000    300.38254    246.59471   -3053.1569   -2606.3607   -877.48286    12436.522 
   37050    301.53195    241.61694   -3053.8979    -2605.392    -965.5655    12441.461 
   37100    298.20258     241.5258     -3050.86   -2607.3062   -925.22113    12445.701 
   37150    301.60648    241.62593   -3054.1975   -2605.5807   -990.24867    12449.211 
   37200    290.75611    241.18301   -3039.4336   -2606.9559   -640.71094    12452.011 
   37250    293.03869    241.29359   -3043.1197   -2607.2469   -727.83015    12454.243 
   37300    297.94217    241.44962   -3048.3206   -2605.1542   -934.59454    12455.888 
   37350    296.99737    241.38327   -3046.1089   -2604.3478   -960.01058    12456.834 
   37400     303.3265    241.55474   -3051.8248   -2600.6496   -1148.9336    12457.037 
   37450    295.10468    241.32639   -3044.2131   -2605.2672   -917.01756    12456.433 
   37500    285.69758    240.99598   -3033.1995    -2608.246   -590.92121     12455.14 
   37550    296.36209    241.35976   -3045.3252   -2604.5091   -946.74602    12453.299 
   37600    299.45971    241.47134   -3049.0445   -2603.6209   -1064.2537    12450.743 
   37650    291.57436    241.18029    -3039.343   -2605.6482   -803.34312    12447.418 
   37700     298.6471    241.40128   -3046.7094   -2602.4945   -1004.4853     12443.43 
   37750    306.00632    241.66023    -3055.341   -2600.1798   -1158.0492    12438.691 
   37800    304.21353     241.5748   -3052.4933   -2599.9988   -1045.7396     12433.13 
   37850    318.52739    242.11361   -3070.4536   -2596.6682   -1438.5062    12426.748 
   37900    299.90826    241.48998   -3049.6659   -2603.5751   -706.33753    12419.422 
   37950    285.67702    240.96032   -3032.0105   -2607.0876   -140.51345    12411.492 
   38000     303.7722    241.63548   -3054.5159   -2602.6778    -617.2107    12403.252 
   38050    295.15933     246.3564   -3045.2134   -2606.1862   -179.96476    12394.548 
   38100    302.07837    246.53379   -3051.1264   -2601.8077   -248.92681    12385.537 
   38150    306.31269    246.75491   -3058.4971   -2602.8802   -384.68073    12376.228 
   38200    302.88205    246.58444   -3052.8146   -2602.3005    -188.7834    12366.545 
   38250    307.85895      246.706   -3056.8668   -2598.9499   -173.67477    12356.573 
   38300    308.83193    246.78327   -3059.4423   -2600.0782   -29.312681     12346.34 
   38350    300.50109    246.46702   -3048.9006    -2601.928    354.45986    12335.946 
   38400    311.50666    246.81639   -3060.5462   -2597.2037    87.442908    12325.541 
   38450    309.34334    246.69522   -3056.5073   -2596.3825    204.40036    12315.043 
   38500    304.76779    246.52546   -3050.8487   -2597.5297    429.22948     12304.49 
   38550    308.26967    246.71883   -3057.2943   -2598.7665    452.65215    12293.988 
   38600    307.10976    246.67425   -3055.8083   -2599.0058    645.10896    12283.578 
   38650    318.08163    247.11904   -3070.6346   -2597.5123    343.89583    12273.332 
   38700    325.61377    247.39078   -3079.6925   -2595.3667    234.06263     12263.12 
   38750    311.94409    246.89709   -3063.2364   -2599.2432    859.19685    12252.913 
   38800    310.22836    246.79651   -3059.8838   -2598.4427    1021.8538    12242.984 
   38850    312.11418    246.87673   -3062.5578   -2598.3116    1016.7311    12233.453 
   38900    318.81352    247.14464   -3071.4881   -2597.2771     947.5205    12224.326 
   38950    309.90056    246.92496   -3064.1653   -2603.2117    1383.9456     12215.58 
   39000    316.14817    247.18479   -3072.8265     -2602.58    1289.5354    12207.409 
   39050    317.69596    247.22971   -3074.3237    -2601.775    1340.4182    12199.798 
   39100    309.63566    246.98289   -3066.0962   -2605.5367    1641.1417    12192.773 
   39150    319.82578    247.30897   -3076.9656    -2601.249    1384.0816    12186.448 
   39200    312.30627    247.03202   -3067.7338   -2603.2019    1739.4486    12180.752 
   39250    309.03057    246.98916   -3066.3053   -2606.6458    1833.2056    12175.836 
   39300    315.57982    247.24946   -3074.9819   -2605.5808    1600.6743    12171.724 
   39350     320.9123     247.4074   -3080.2468   -2602.9141    1432.8083    12168.328 
   39400    313.99075    247.16044   -3072.0148   -2604.9773    1552.0905    12165.582 
   39450    314.12604    247.18528   -3072.8426    -2605.604     1507.209    12163.501 
   39500     319.8919    247.41632   -3080.5439    -2604.729    1260.1019    12162.043 
   39550    307.39024    247.07756   -3069.2518   -2612.0321    1531.0331     12161.14 
   39600    311.23819    247.36344   -3078.7814   -2615.8382    1328.9232     12160.88 
   39650     315.9835    247.61197   -3087.0658   -2617.0642    1223.4085    12161.181 
   39700     310.1397    247.43891   -3081.2972   -2619.9879    1460.9741    12162.006 
   39750    318.79895    247.76637   -3092.2123   -2618.0231    1124.7465    12163.439 
   39800    310.53104    247.58117   -3086.0391   -2624.1477    1280.8368    12165.353 
   39850    310.54144    247.71902   -3090.6339    -2628.727     1116.696     12167.78 
   39900    324.04196    248.22269   -3107.4229   -2625.4351    530.36844    12170.635 
   39950    318.76184    248.17375   -3105.7918   -2631.6577     564.5268    12173.639 
   40000     306.6984    247.80523   -3093.5076    -2637.317    855.56361    12176.799 
   40050    294.67931    252.33613    -3077.871   -2639.5579    1171.1478    12180.272 
   40100    303.20289    252.76274   -3092.0913      -2641.1    737.93581    12184.191 
   40150    303.85317    252.88228    -3096.076   -2644.1175    583.52092    12188.407 
   40200    309.02391     253.0145   -3100.4833   -2640.8337    323.59722    12192.794 
   40250    303.14622    252.90572   -3096.8574   -2645.9504    415.21914    12197.229 
   40300    290.31843    252.38863    -3079.621   -2647.7944    835.05404    12201.773 
   40350    291.11033    252.47606   -3082.5354   -2649.5309    741.26175    12206.623 
   40400    308.35337    253.19045   -3106.3484   -2647.6962    97.576021    12211.695 
   40450     297.4015    252.81085   -3093.6949   -2651.3327    384.21293    12216.739 
   40500    293.12162    252.68251   -3089.4172    -2653.421    409.53231    12221.843 
   40550    293.81103    252.69821   -3089.9403   -2652.9187     309.9576    12227.022 
   40600    295.22525    252.71053    -3090.351   -2651.2258     239.8362    12232.238 
   40650    304.30689    253.07211   -3102.4037   -2649.7702   -118.21953    12237.432 
   40700    286.75415    252.40353   -3080.1176   -2653.5925    461.78044    12242.466 
   40750    265.06995    251.71655   -3057.2182   -2662.9468    1056.0608    12247.626 
   40800    271.04256    251.94934   -3064.9779   -2661.8226    646.87182     12253.19 
   40850    287.69475    252.48619   -3082.8731    -2654.949   -60.779179    12258.962 
   40900    294.56564    252.74376   -3091.4587   -2653.3146   -301.19925    12264.587 
   40950    293.33626    252.65619   -3088.5398   -2652.2243   -263.91373    12269.927 
   41000    294.84512    252.73327   -3091.1089   -2652.5492   -382.92068    12274.969 
   41050    283.15385    252.33741   -3077.9135   -2656.7437   -87.467631    12279.689 
   41100    281.59155    252.33119   -3077.7063   -2658.8602   -175.98889    12284.198 
   41150    286.28888    252.46626   -3082.2087   -2656.3756   -357.36419    12288.469 
   41200    281.66896    252.22109   -3074.0365   -2655.0753   -202.28583    12292.437 
   41250    280.92406    252.08706   -3069.5685   -2651.7153   -224.99053    12296.152 
   41300    293.61305    252.60351   -3086.7836   -2650.0565   -624.84239     12299.58 
   41350    292.94032    252.60091   -3086.6968   -2650.9703   -632.29446    12302.555 
   41400    295.63159    252.71556   -3090.5186    -2650.789   -768.85035    12305.025 
   41450    285.37033    252.27616    -3075.872   -2651.4053   -396.92857    12306.962 
   41500     286.7489    252.31543   -3077.1812   -2650.6639   -349.67577    12308.522 
   41550    284.07288    252.20025   -3073.3417   -2650.8048   -295.23846    12309.756 
   41600    298.30089    252.64971   -3088.3237   -2644.6237   -762.74782    12310.642 
   41650    273.30138    251.72073   -3057.3576   -2650.8425    31.914194    12311.045 
   41700    284.50208    252.01252   -3067.0839   -2643.9086   -273.58558    12311.254 
   41750    291.07763    252.34373   -3078.1245   -2645.1686   -455.88768    12311.189 
   41800    288.19899    252.20834   -3073.6113   -2644.9372   -245.75343    12310.765 
   41850    297.50863    252.51586   -3083.8621   -2641.3406   -512.25131    12310.029 
   41900    287.59924    252.17675   -3072.5583   -2644.7762   -233.42974    12308.903 
   41950    294.40881    252.32932   -3077.6441   -2639.7333    -448.4772    12307.485 
   42000    300.26552     252.4603   -3082.0099   -2635.3877   -599.99111    12305.681 
   42050    298.77438    252.37451   -3079.1502    -2634.746   -303.03451    12303.408 
   42100    283.96605    251.71198    -3057.066    -2634.688    430.73197    12300.846 
   42150    283.77939    251.68283   -3056.0943   -2633.9939    447.58095    12298.357 
   42200    303.15443    252.31688   -3077.2292     -2626.31   -206.53119    12295.931 
   42250    296.10883    252.08632   -3069.5439   -2629.1045    78.900322    12293.294 
   42300    294.34018    252.06345   -3068.7818    -2630.973    153.82002     12290.54 
   42350    307.33071    252.53079   -3084.3597   -2627.2286   -271.06517    12287.695 
   42400    305.52966      252.425   -3080.8333   -2626.3811    -67.31165    12284.578 
   42450    290.22899    251.78041   -3059.3469   -2627.6533    602.81551    12281.314 
   42500    294.95697    251.90262   -3063.4207   -2624.6945    476.66575    12278.188 
   42550    300.71382    252.08727   -3069.5757   -2622.2867    345.00779    12275.179 
   42600    303.44132    252.13172   -3071.0573   -2619.7114    340.25729    12272.222 
   42650    302.94632    252.13632   -3071.2107   -2620.6011    417.60221    12269.297 
   42700    298.07736    251.87651   -3062.5502   -2619.1827    662.87945    12266.479 
   42750    306.76172     252.1926   -3073.0867   -2616.8019    354.90153    12263.852 
   42800    310.37407    252.35678   -3078.5593   -2616.9014    214.61496    12261.278 
   42850    307.46422    252.21982    -3073.994   -2616.6643    397.72456    12258.699 
   42900    310.41953    252.27402   -3075.8008   -2614.0753    483.38384    12256.181 
   42950    304.69064    252.04062   -3068.0206   -2614.8164    812.64552    12253.809 
   43000    304.85946    251.98682   -3066.2272   -2612.7719    770.93884    12251.711 
   43050    303.91716     251.9526   -3065.0866   -2613.0328    717.66103    12249.887 
   43100    305.13578    252.19407   -3073.1358   -2619.2695    565.24721    12248.304 
   43150    310.53697    252.33395   -3077.7982    -2615.898    501.13841    12246.889 
   43200    314.57903    252.33024   -3077.6747   -2609.7623    551.07626    12245.619 
   43250    307.59062    252.02213   -3067.4044   -2609.8867     810.0525    12244.516 
   43300    303.58116     251.8913   -3063.0434   -2611.4894    995.21086     12243.69 
   43350    300.56657    251.73968   -3057.9892   -2610.9192    1161.6183    12243.275 
   43400    298.96731     251.6613   -3055.3766   -2610.6853    1154.8781    12243.342 
   43450    306.23523    252.03376    -3067.792   -2612.2903    698.80269    12243.878 
   43500     327.5309    252.82411   -3094.1369   -2606.9595    17.896739    12244.635 
   43550    300.91302    251.74163   -3058.0544   -2610.4691    953.07087    12245.344 
   43600    299.52298    251.67454    -3055.818   -2610.3003    1049.9546    12246.357 
   43650    295.77465    251.44793   -3048.2644    -2608.322    1204.8086     12247.83 
   43700    295.08759    251.49321   -3049.7738   -2610.8534    1222.9325    12249.811 
   43750    302.86972    251.85484   -3061.8279   -2611.3321    929.30299    12252.313 
   43800    308.16492    252.03701   -3067.9002   -2609.5283    716.33703     12255.19 
   43850    309.47988    252.05188    -3068.396   -2608.0681    735.50592    12258.309 
   43900    303.87948    251.86059   -3062.0197    -2610.022    962.12276    12261.721 
   43950     303.7015     251.7751     -3059.17    -2607.437    939.09479    12265.505 
   44000    307.29578    251.90278   -3063.4259   -2606.3468    687.69158    12269.641 
   44050    307.79942    251.84458   -3061.4861   -2603.6578    607.66303    12274.025 
   44100    299.05462    251.59149   -3053.0497   -2608.2286     754.4454    12278.614 
[...]
   89400    293.28182    219.51939   -3150.6463   -2714.4118     551.2462    12051.078 
   89450    298.29654    219.72358   -3157.4526   -2713.7592    273.81049    12054.345 
   89500    301.40189    219.80149   -3160.0497   -2711.7372    99.867171    12057.508 
   89550    302.73475    219.74672    -3158.224    -2707.929    135.08661    12060.492 
   89600    303.97474    219.66519   -3155.5062   -2703.3669    155.50669    12063.296 
   89650    306.10805    219.72062    -3157.354   -2702.0415    92.006833    12065.932 
   89700    317.79474    220.01692   -3167.2308   -2694.5352    -107.4418    12068.343 
   89750    301.96873    219.40324   -3146.7748   -2697.6192    446.74829    12070.482 
   89800    295.27868    219.14496   -3138.1653   -2698.9607    633.69937    12072.596 
   89850    300.59502     219.2242   -3140.8068   -2693.6945    392.88475    12074.784 
   89900    307.86093    219.47141   -3149.0471   -2691.1273    86.899173    12076.929 
   89950    310.31082     219.5458   -3151.5266   -2689.9628    40.730737    12078.903 
   90000    309.77931     219.3818   -3146.0601   -2685.2869    311.68207    12080.653 
   90050    311.63189    224.30404   -3143.4681   -2679.9393    400.16075    12082.309 
   90100    312.95553     224.3643   -3145.4765   -2679.9789    332.68545    12083.939 
   90150    293.07385    223.68807   -3122.9357   -2687.0106    899.42917    12085.559 
   90200    304.44769     224.0355   -3134.5165   -2681.6737     604.5487    12087.369 
   90250    298.13422    223.84702    -3128.234   -2684.7819    849.05042    12089.304 
   90300    310.91509    224.14706   -3138.2354   -2675.7727    556.88156    12091.435 
   90350    310.15971    224.14377   -3138.1256   -2676.7866    508.82253    12093.657 
   90400    306.96895    223.98111   -3132.7038   -2676.1108    610.99484    12095.899 
   90450    301.16134    223.65685    -3121.895   -2673.9403    792.84748    12098.239 
   90500    300.92957    223.60727   -3120.2425   -2672.6326    740.40617    12100.767 
   90550    313.63876     224.0406   -3134.6866   -2668.1727    358.84597    12103.424 
   90600    306.95642    223.65452   -3121.8173   -2665.2429    568.49817     12106.07 
   90650    325.43536    224.29469   -3143.1563   -2659.0959   -11.089544    12108.726 
   90700    309.31679    223.86477   -3128.8255   -2668.7403    405.65034    12111.199 
   90750    293.02858    223.23764   -3107.9212   -2672.0634    985.12958    12113.648 
   90800    297.54607    223.42538   -3114.1794   -2671.6022    768.65847    12116.368 
   90850    322.16628    224.13519   -3137.8395   -2658.6416    36.299543    12119.232 
   90900    304.82996    223.56218   -3118.7394   -2665.3279    559.75984    12121.934 
   90950    295.51154    223.26741   -3108.9136   -2669.3626     805.5663    12124.675 
   91000    312.89696    223.84047   -3128.0156   -2662.6051    209.07536    12127.586 
   91050    331.98301    219.40753   -3146.9175   -2653.1179   -358.30394    12130.357 
   91100    309.15644      218.665   -3122.1667     -2662.32    390.49285    12132.731 
   91150    310.64438    218.72165   -3124.0548   -2661.9949    442.27451    12134.999 
   91200    305.61002     218.6345     -3121.15   -2666.5782    484.40642    12137.265 
   91250    315.89582    218.94829   -3131.6096   -2661.7386    101.39928    12139.512 
   91300    313.32173    218.87707   -3129.2356   -2663.1933    100.15723    12141.588 
   91350    314.53116    218.89195   -3129.7316   -2661.8904    104.36133    12143.459 
   91400    306.93652    218.66547   -3122.1822   -2665.6374    264.29305    12145.151 
   91450    318.99343    219.06454   -3135.4848   -2661.0062   -138.69171     12146.69 
   91500     320.0137    219.08764   -3136.2546   -2660.2585   -145.06211    12147.911 
   91550    313.98089    218.90396   -3130.1321   -2663.1093    25.487651    12148.791 
   91600    310.19826    218.77633   -3125.8775   -2664.4811    194.02482    12149.412 
   91650    305.92104    218.64158   -3121.3859   -2666.3515     324.7642    12149.884 
   91700    304.02736    218.63633   -3121.2111   -2668.9934     392.8312    12150.278 
   91750    309.82957    218.84667   -3128.2223   -2667.3743    192.14902    12150.617 
   91800    314.99791    219.06201   -3135.4003   -2666.8648   -106.10144    12150.809 
   91850     307.7936     218.7978   -3126.5932   -2668.7736   -54.440068    12150.707 
   91900    317.04416    219.10996   -3136.9988   -2665.4196   -385.28687    12150.306 
   91950    310.31863    218.96453   -3132.1509   -2670.5755   -153.74727    12149.468 
   92000    304.08292    218.78346   -3126.1154   -2673.8151    116.56598    12148.291 
   92050    322.26176    219.34448   -3144.8159    -2665.476   -397.67234    12146.904 
   92100    317.25769    219.20183    -3140.061   -2668.1643   -348.23746    12145.077 
   92150    307.60744    219.02367   -3134.1222   -2676.5795   -15.404396    12142.804 
   92200    293.21371    218.55501   -3118.5005   -2682.3673    441.17994    12140.315 
   92250    298.50425    218.71014   -3123.6713   -2679.6688    297.62505    12137.795 
   92300    306.42585    219.06492   -3135.4974   -2679.7122    -44.60434    12135.178 
   92350    308.85905    219.15978   -3138.6594    -2679.255   -126.70748    12132.316 
   92400    299.14343    218.94459   -3131.4864   -2686.5333    183.35034    12129.171 
   92450    307.56185    219.22053   -3140.6843   -2683.2093   -70.804198    12125.865 
   92500    298.40167    219.02703   -3134.2342   -2690.3844    125.14875    12122.307 
   92550    301.93081    219.12997   -3137.6658   -2688.5666    34.708818    12118.555 
   92600    313.76391    219.46125   -3148.7082   -2682.0082   -269.56963    12114.593 
   92650    293.36204    218.90747   -3130.2491   -2693.8953    309.66068    12110.279 
   92700    282.54735    218.62862   -3120.9541   -2700.6863    621.09934    12105.893 
   92750    298.96346    219.11613   -3137.2042   -2692.5187     217.0177    12101.587 
   92800    299.70908    219.15111   -3138.3702   -2692.5757    184.79474    12097.195 
   92850    311.39446     219.5793   -3152.6433   -2689.4677   -165.48367    12092.645 
   92900    317.05131    219.79653   -3159.8844   -2688.2946   -201.74939    12087.783 
   92950    294.67249    219.16081   -3138.6938   -2700.3908    546.49337    12082.638 
   93000    291.79087     219.0906   -3136.3533   -2702.3365     668.6929     12077.52 
   93050    312.33218    214.80388   -3160.1292   -2695.5588    90.649489    12072.497 
   93100    306.04975    214.62344   -3154.1147   -2698.8889    344.48235    12067.327 
   93150    294.61802    214.29609   -3143.2032   -2704.9812    757.66729    12062.102 
   93200    300.49754    214.40484   -3146.8279   -2699.8606    617.06508    12057.013 
   93250    306.59506    214.63077   -3154.3592   -2698.3222    426.01374    12052.001 
   93300    305.20648    214.68439   -3156.1462   -2702.1747    370.98943    12047.002 
   93350    311.33376    214.89266   -3163.0888   -2700.0034    244.77439    12041.947 
   93400    298.62164    214.50981    -3150.327     -2706.15    637.58387    12036.816 
   93450    318.94548    215.05233    -3168.411   -2694.0038    124.14925    12031.734 
   93500    314.28618    214.92885    -3164.295   -2696.8181    244.57032    12026.502 
   93550    313.70366    214.97589   -3165.8629   -2699.2524    332.86683    12021.148 
   93600    305.89163    214.81966   -3160.6554   -2705.6648    597.40774    12015.751 
   93650    312.29703    214.97591   -3165.8637   -2701.3455    546.71405    12010.401 
   93700    294.03656    214.50894   -3150.2981    -2712.941    1148.0371    12005.132 
   93750    292.84784    214.43344   -3147.7813   -2712.1924    1274.6927    12000.219 
   93800    304.02045    214.74386   -3158.1286   -2705.9213    987.63824    11995.726 
   93850    300.97119    214.72224   -3157.4081   -2709.7362    1068.4777    11991.531 
   93900    311.23268    215.07079   -3169.0264   -2706.0914    742.74826    11987.637 
   93950    322.06706     215.5155     -3183.85   -2704.7997    369.45266    11983.888 
   94000    301.05032    214.87886   -3162.6288   -2714.8393    952.91729    11980.145 
   94050    304.37939    214.94089   -3164.6964   -2711.9551    926.34992    11976.626 
   94100    313.93052    215.22665   -3174.2215   -2707.2737    711.68524    11973.348 
   94150    305.83669     215.0356   -3167.8534   -2712.9445    904.06436    11970.224 
   94200    302.78222    215.02888   -3167.6294   -2717.2638    907.73364    11967.328 
   94250    312.46444    215.26861   -3175.6203   -2710.8531    679.72339    11964.652 
   94300    305.59547    215.01524   -3167.1748   -2712.6247    863.75405    11962.101 
   94350    320.15928    215.49587   -3183.1956   -2706.9829    394.53222    11959.707 
   94400    320.83293     215.5627   -3185.4235   -2708.2088    410.49557    11957.296 
   94450    306.59711    215.11751   -3170.5837   -2714.5437    952.03054    11954.864 
   94500    306.24763    215.25071   -3175.0235   -2719.5034    985.89576    11952.658 
   94550    304.44849    215.14403   -3171.4675   -2718.6234    1096.2017    11950.743 
   94600    300.49701    215.03926   -3167.9753   -2721.0088    1219.4813    11949.155 
   94650    290.77498    214.82363   -3160.7878   -2728.2821    1437.4796    11947.961 
   94700    304.12202    215.26869   -3175.6232   -2723.2647    944.75353    11947.249 
   94750     327.5177    215.95652   -3198.5508    -2711.393    256.34113    11946.761 
   94800    301.24017    215.08545   -3169.5148   -2721.4429    1051.4546    11946.227 
   94850    294.01771    214.94305   -3164.7684   -2727.4393    1236.2683    11945.938 
   94900    314.42889     215.6335   -3187.7835   -2720.0943    670.32333    11945.987 
   94950    306.50477    215.27583   -3175.8611   -2719.9585    894.15549    11946.191 
   95000    293.41859     214.9148   -3163.8266   -2727.3887    1294.8485    11946.602 
   95050    288.53069    209.77746   -3159.2486   -2730.0811    1397.5018    11947.423 
   95100    301.65586    210.18572   -3172.8574   -2724.1671    900.44362    11948.665 
   95150    312.28817    210.50468   -3183.4892   -2718.9842    562.76975    11950.113 
   95200    306.94131    210.40357   -3180.1189   -2723.5669    706.11211    11951.615 
   95250    298.88766    210.22232   -3174.0775   -2729.5047    904.68512    11953.198 
   95300    309.75103    210.68355   -3189.4517   -2728.7205    512.73054    11954.959 
   95350    304.95972    210.45417   -3181.8057   -2728.2012    610.53522    11956.759 
   95400    303.84082    210.35588   -3178.5294   -2726.5892    652.86218     11958.58 
   95450    305.99959    210.43542   -3181.1805   -2726.0293    463.07897    11960.443 
   95500    304.67181    210.43397   -3181.1322    -2727.956    371.24896    11962.257 
   95550    304.61903    210.45258   -3181.7528   -2728.6551    295.78048    11963.982 
   95600    299.19789    210.30721   -3176.9069   -2731.8727    382.44587    11965.599 
   95650    299.78753    210.34111   -3178.0369   -2732.1257    393.43826    11967.141 
   95700    304.65458    210.50885   -3183.6283   -2730.4777    282.29661    11968.605 
   95750    305.86532    210.51116   -3183.7052   -2728.7537    252.26296    11969.942 
   95800    293.61158    210.23418   -3174.4726   -2737.7477    546.38552    11971.165 
   95850    280.08203    209.91165   -3163.7216   -2747.1208    830.29716    11972.417 
   95900    296.28065    210.39265   -3179.7551   -2739.0601    367.56783    11973.825 
   95950     310.2586    210.82449   -3194.1497   -2732.6635   -12.721939    11975.167 
   96000    295.63313    210.32155   -3177.3849    -2737.653    319.30346    11976.264 
   96050    303.37463    215.65879   -3188.6264   -2737.3796    15.725601    11977.224 
   96100    292.49202    215.27661   -3175.8871   -2740.8274    382.98276    11977.981 
   96150    285.63208     215.0538   -3168.4599   -2743.6038     572.4781    11978.675 
   96200    288.02291    215.10103   -3170.0342   -2741.6219    463.73357    11979.411 
   96250    293.15348    215.35229   -3178.4095   -2742.3659    255.65249    11980.135 
   96300    290.34114    215.27674   -3175.8912   -2744.0308    329.53841    11980.779 
   96350     304.9067    215.71752   -3190.5841   -2737.0585   -107.64503    11981.318 
   96400    298.60384    215.50553   -3183.5175   -2739.3669    96.394277    11981.572 
   96450    281.96909    214.99792   -3166.5974   -2747.1897    624.09418    11981.649 
   96500    295.04789     215.3721     -3179.07   -2740.2086    265.50301    11981.766 
   96550     290.9296    215.25788   -3175.2628    -2742.527    350.09282    11981.799 
   96600    282.80673    214.95496   -3165.1654   -2744.5118    627.48713    11981.779 
   96650    287.65714    215.08456   -3169.4852   -2741.6171    501.71212    11981.833 
   96700    297.98491    215.50227   -3183.4091   -2740.1791    200.60098    11981.882 
   96750    286.07354    215.21081   -3173.6938   -2748.1811    471.45282    11981.832 
   96800    297.00324     215.4837     -3182.79   -2741.0202    177.24041     11981.75 
   96850    289.57056    215.16753   -3172.2509   -2741.5367    416.11104    11981.551 
   96900    286.76759    215.06509   -3168.8362   -2742.2912    495.95344    11981.322 
   96950    303.80006    215.62757   -3187.5858   -2735.7062    -62.67679     11981.07 
   97000    296.35126    215.35404    -3178.468    -2737.668    119.82783    11980.582 
   97050    299.94871    210.49914   -3183.3047   -2737.1537    98.697793    11979.871 
   97100    289.83433    210.18319   -3172.7729   -2741.6663    416.40983    11978.989 
   97150     296.9578    210.32585   -3177.5282    -2735.826    253.41866    11978.049 
   97200     295.8661    210.32882   -3177.6272   -2737.5488    238.80388    11977.004 
   97250     298.7448    210.39944   -3179.9814   -2735.6212     276.1909    11975.819 
   97300    292.84123     210.1906   -3173.0199   -2737.4407    587.83321    11974.551 
   97350    314.54599    210.84007   -3194.6689   -2726.8056    9.0258723     11973.28 
   97400     304.3866    210.55513   -3185.1712   -2732.4192    270.40742    11971.786 
   97450    292.81422    210.17559   -3172.5196   -2736.9806    596.77906    11970.166 
   97500    297.46536    210.29409   -3176.4698   -2734.0126    506.23501    11968.585 
   97550    299.54423    210.36932   -3178.9772   -2733.4279    494.90702    11967.021 
   97600    296.21094    210.25774   -3175.2579   -2734.6666    662.74933    11965.475 
   97650    309.45851    210.54396   -3184.7987   -2724.5026    400.93188    11963.989 
   97700    296.83874    210.20869    -3173.623   -2732.0979    704.75112    11962.475 
   97750    307.35597    210.48063   -3182.6877    -2725.519    458.45736    11961.034 
   97800    300.23401     210.2453   -3174.8432   -2728.2679    647.30121     11959.62 
   97850    309.44301    210.50566   -3183.5219   -2723.2488    502.19097    11958.259 
   97900    306.55211    210.39602   -3179.8673   -2723.8943    600.59309    11956.903 
   97950    314.45623     210.6095   -3186.9835   -2719.2537    438.13431    11955.567 
   98000    302.64454    210.22305   -3174.1016   -2723.9408    810.04277    11954.247 
   98050    302.91586    215.18253    -3172.751   -2722.1866    903.81954     11953.08 
   98100    303.75855    215.12054   -3170.6847   -2718.8669    978.91769     11952.14 
   98150    310.42285    215.33841    -3177.947   -2716.2165     862.2489    11951.463 
   98200    311.05859    215.24438   -3174.8128   -2712.1367     1025.208    11950.988 
   98250    308.94287    215.15221   -3171.7404   -2712.2113    1108.4125    11950.788 
   98300    310.46819    215.15363   -3171.7876   -2709.9897    1055.1157    11950.909 
   98350    308.08042    214.97462   -3165.8207   -2707.5745    1235.2268    11951.326 
   98400    309.87433    215.04427   -3168.1423   -2707.2277    1303.4547    11952.132 
   98450    312.45232    215.04388   -3168.1294   -2703.3802    1324.9294    11953.363 
   98500     323.8644    215.31217   -3177.0722   -2695.3484    1060.3209    11954.982 
   98550    313.92041    214.84685   -3161.5617   -2694.6288    1421.2486     11956.93 
   98600    308.70247    214.61356   -3153.7853   -2694.6137    1551.6029    11959.328 
   98650    316.78222    214.75044   -3158.3478   -2687.1583    1335.0074    11962.244 
   98700    319.08254    214.83976   -3161.3254   -2686.7143    1274.1133    11965.585 
   98750     323.3407    214.90758   -3163.5859   -2682.6411     1178.066    11969.314 
   98800    324.76243    214.86156   -3162.0519   -2678.9924    1121.9431    11973.372 
   98850    322.17623    214.75822   -3158.6073   -2679.3945    1186.3075    11977.725 
   98900    316.17527    214.50779   -3150.2596   -2679.9728    1354.9717    11982.416 
   98950    321.00069    214.68697   -3156.2324   -2678.7682     1168.902    11987.488 
   99000    307.84843    214.26918    -3142.306   -2684.4047    1424.5634    11992.916 
   99050    321.66164    219.70491   -3156.8303    -2678.383    960.98432    11998.757 
   99100    329.27931    219.90567   -3163.5223   -2673.7443    663.74169    12004.825 
   99150    307.63383    219.17586   -3139.1952   -2681.6132    1285.6903    12010.998 
   99200    311.52943     219.4016     -3146.72   -2683.3436    1106.6276    12017.518 
   99250    313.08495    219.42981   -3147.6604   -2681.9703    975.89871    12024.345 
   99300    310.27158    219.36933   -3145.6443   -2684.1388     1037.324    12031.398 
   99350    313.25351    219.47612   -3149.2039    -2683.263    895.31046    12038.706 
   99400    310.40851     219.3466   -3144.8867   -2683.1776    950.92998    12046.206 
   99450    300.95257    219.05505   -3135.1683   -2687.5241    1181.4229    12053.927 
   99500    317.16997    219.53341   -3151.1136   -2679.3473    612.39686    12061.933 
   99550    312.16709    219.37611   -3145.8704   -2681.5455    574.66901    12070.006 
   99600    316.57272    219.53515   -3151.1716   -2680.2936    337.78415    12078.062 
   99650    311.15765    219.43071   -3147.6902   -2684.8668    345.51187    12086.006 
   99700    300.10032    219.06456   -3135.4853   -2689.1088    509.21735    12093.861 
   99750    309.28623    219.31885   -3143.9616   -2683.9218    199.64107    12101.646 
   99800    295.73086    218.86018   -3128.6725   -2688.7953    417.38374    12109.269 
   99850    305.58621    219.30547   -3143.5156   -2688.9792   -48.970748    12116.765 
   99900    293.48243    218.82972   -3127.6574   -2691.1245    221.23999    12123.993 
   99950    299.21975    218.95005   -3131.6685   -2686.6018    7.9731996     12131.02 
  100000    304.92435    219.10014   -3136.6712   -2683.1193   -201.00847    12137.759 
Loop time of 27.0159 on 1 procs for 100000 steps with 500 atoms

Performance: 319.812 ns/day, 0.075 hours/ns, 3701.529 timesteps/s
99.4% CPU use with 1 MPI tasks x 1 OpenMP threads

MPI task timing breakdown:
Section |  min time  |  avg time  |  max time  |%varavg| %total
---------------------------------------------------------------
Pair    | 22.038     | 22.038     | 22.038     |   0.0 | 81.57
Bond    | 0.0067842  | 0.0067842  | 0.0067842  |   0.0 |  0.03
Neigh   | 0.5215     | 0.5215     | 0.5215     |   0.0 |  1.93
Comm    | 0.79493    | 0.79493    | 0.79493    |   0.0 |  2.94
Output  | 0.018392   | 0.018392   | 0.018392   |   0.0 |  0.07
Modify  | 2.7619     | 2.7619     | 2.7619     |   0.0 | 10.22
Other   |            | 0.8748     |            |       |  3.24

Nlocal:    500 ave 500 max 500 min
Histogram: 1 0 0 0 0 0 0 0 0 0
Nghost:    1598 ave 1598 max 1598 min
Histogram: 1 0 0 0 0 0 0 0 0 0
Neighs:    14499 ave 14499 max 14499 min
Histogram: 1 0 0 0 0 0 0 0 0 0

Total # of neighbors = 14499
Ave neighs/atom = 28.998
Ave special neighs/atom = 0
Neighbor list builds = 630
Dangerous builds = 0

write_data      ${walker}/final_restart_file
write_data      12/final_restart_file

quit
