LAMMPS (19 May 2017)
Processor partition = 12
  using 1 OpenMP thread(s) per MPI task
# gREM variables
variable        lambda world 1000 1005 1010 1015 1020 1025 1030 1035 1040 1045 1050 1055 1060 1065 1070 1075
variable        walker world 0 1 2 3 4 5 6 7 8 9 10 11 12 13 14 15
variable        replica world 2 3 4 6 13 0 1 7 11 14 9 8 5 10 12 15

variable        T0 equal 300.0
variable        press equal 0.0

units           real
atom_style      full
pair_style      lj/cut 5.0

# LJ particles
read_data       ${walker}/restart_file
read_data       12/restart_file
  orthogonal box = (1.00922 1.00922 1.00922) to (23.9908 23.9908 23.9908)
  1 by 1 by 1 MPI processor grid
  reading atoms ...
  500 atoms
  reading velocities ...
  500 velocities
  0 = max # of 1-2 neighbors
  0 = max # of 1-3 neighbors
  0 = max # of 1-4 neighbors
  1 = max # of special neighbors

#dump            dump all xyz 1000 ${walker}/dump.xyz

fix             fxnpt all npt temp ${T0} ${T0} 1000.0 iso ${press} ${press} 10000.0
fix             fxnpt all npt temp 300 ${T0} 1000.0 iso ${press} ${press} 10000.0
fix             fxnpt all npt temp 300 300 1000.0 iso ${press} ${press} 10000.0
fix             fxnpt all npt temp 300 300 1000.0 iso 0 ${press} 10000.0
fix             fxnpt all npt temp 300 300 1000.0 iso 0 0 10000.0
fix             fxgREM all grem ${lambda} -.03 -30000 fxnpt
fix             fxgREM all grem 1060 -.03 -30000 fxnpt
thermo_modify   press fxgREM_press

thermo          50
thermo_style    custom step temp f_fxgREM pe etotal press vol
WARNING: New thermo_style command, previous thermo_modify settings will be lost (../output.cpp:705)
timestep        1.0

temper/grem     100000 1000 ${lambda} fxgREM fxnpt 10294 98392 ${walker}
temper/grem     100000 1000 1060 fxgREM fxnpt 10294 98392 ${walker}
temper/grem     100000 1000 1060 fxgREM fxnpt 10294 98392 12
Neighbor list info ...
  update every 1 steps, delay 10 steps, check yes
  max neighbors/atom: 2000, page size: 100000
  master list distance cutoff = 7
  ghost atom cutoff = 7
  binsize = 3.5, bins = 7 7 7
  1 neighbor lists, perpetual/occasional/extra = 1 0 0
  (1) pair lj/cut, perpetual
      attributes: half, newton on
      pair build: half/bin/newton
      stencil: half/bin/3d/newton
      bin: standard
Per MPI rank memory allocation (min/avg/max) = 5.722 | 5.722 | 5.722 Mbytes
Step Temp f_fxgREM PotEng TotEng Press Volume 
       0    304.92435    254.10014   -3136.6712   -2683.1193   -201.00847    12137.759 
      50    278.54448    253.17979   -3105.9929   -2691.6791    704.86182    12137.691 
     100     268.6722     252.7614   -3092.0465    -2692.417    1104.3141    12137.843 
     150    282.42485    253.36122   -3112.0407   -2691.9551    641.81478    12138.416 
     200    286.01741    253.42932   -3114.3106   -2688.8814    497.87276    12139.226 
     250    295.98025    253.80984   -3126.9948   -2686.7466    200.33207    12140.156 
     300    268.70252    252.90391   -3096.7969   -2697.1223     1139.601    12141.134 
     350    273.41833    253.02631   -3100.8771   -2694.1881     949.9255    12142.547 
     400    297.46457    253.85106   -3128.3685   -2685.9125    130.36111    12144.308 
     450    285.40349    253.32827   -3110.9424   -2686.4263    598.21283    12146.084 
     500    284.38994    253.29138   -3109.7127   -2686.7042    651.07658    12148.038 
     550    294.96912    253.53758   -3117.9193   -2679.1751    349.38469    12150.189 
     600    282.02638    253.09283   -3103.0942   -2683.6014     784.2623    12152.443 
     650    276.28147    252.74846   -3091.6153   -2680.6676    1082.4984    12154.986 
     700    283.46993    252.95326   -3098.4419   -2676.8018    843.59575    12157.951 
     750    290.41858    253.26272   -3108.7574   -2676.7817    537.25322    12161.228 
     800    289.21535    253.13273   -3104.4244   -2674.2385     581.4131    12164.688 
     850    304.02226    253.62276   -3120.7586   -2668.5485    125.32476    12168.291 
     900    289.77711    253.02585   -3100.8616   -2669.8401    657.45748    12171.886 
     950    279.05727    252.59737   -3086.5789   -2671.5023    1012.5769    12175.684 
    1000    284.56877    252.70971   -3090.3238   -2667.0493    779.61123    12179.864 
    1050     282.0501    252.59802   -3086.6007   -2667.0725    833.77666    12184.364 
    1100    286.81664    252.77021   -3092.3403   -2665.7223    711.71976    12189.178 
    1150    280.12596    252.44126   -3081.3755   -2664.7093    942.27561    12194.265 
    1200    287.11171    252.59169   -3086.3896   -2659.3327    751.55439    12199.716 
    1250    295.26925    252.83195   -3094.3983   -2655.2076    445.58501     12205.45 
    1300    302.33258    253.01689   -3100.5629   -2650.8661    178.63756    12211.281 
    1350    291.90191    252.65543   -3088.5143   -2654.3323    387.34338    12217.117 
    1400    304.72939    253.09642   -3103.2139    -2649.952   -97.027016    12222.977 
    1450     290.1396    252.50651   -3083.5502   -2651.9896    425.92333    12228.681 
    1500     279.9729    252.09859   -3069.9531   -2653.5146    801.11548    12234.468 
    1550    307.47517    253.06865   -3102.2883   -2644.9423    -178.1006    12240.495 
    1600     303.8152    252.89993   -3096.6644   -2644.7623   -58.807614    12246.346 
    1650    295.75556    252.54132   -3084.7106   -2644.7966    284.38545    12252.029 
    1700    282.75796    252.01309   -3067.1031    -2646.522    649.35953    12257.756 
    1750    294.68124    252.45974   -3081.9914   -2643.6754    207.42833    12263.653 
    1800    291.92011    252.29985   -3076.6617   -2642.4527    244.44611    12269.566 
    1850    300.36702    252.56589   -3085.5295   -2638.7564   -86.135838    12275.449 
    1900    296.30717    252.39035   -3079.6785    -2638.944   -78.252084    12281.173 
    1950    286.83055    252.07717   -3069.2389   -2642.6002    155.75971    12286.718 
    2000    290.08088    252.09958   -3069.9862   -2638.5128    68.663727    12292.183 
    2050    274.95449    251.55988   -3051.9961   -2643.0221    534.27797    12297.602 
    2100    289.55735    252.15551   -3071.8504   -2641.1558    6.3488456    12303.124 
    2150    300.62157    252.52495    -3084.165   -2637.0132   -356.97556    12308.515 
    2200    287.24454    251.99491   -3066.4969   -2639.2424    55.978951    12313.615 
    2250    296.07997    252.35699   -3078.5664   -2638.1699    -325.8585    12318.554 
    2300    297.40968    252.25924    -3075.308   -2632.9336   -407.74202    12323.191 
    2350     292.7212     252.0982   -3069.9398   -2634.5392    -263.8782    12327.474 
    2400    289.28566    251.91381   -3063.7937   -2633.5032   -106.07126    12331.475 
    2450    291.15908    251.92358   -3064.1193   -2631.0423   -115.16809    12335.286 
    2500    296.58282    252.01775   -3067.2585    -2626.114   -204.68016    12338.882 
    2550    283.05821     251.5647   -3052.1567   -2631.1291     241.8242    12342.262 
    2600    291.30922    251.92548   -3064.1827   -2630.8823   -41.936484    12345.589 
    2650    293.55878     251.9848   -3066.1602   -2629.5137    -207.9539    12348.762 
    2700     299.8604    252.16739   -3072.2464   -2626.2268   -442.13814    12351.665 
    2750    285.87505    251.62228   -3054.0761   -2628.8587    29.946682    12354.226 
    2800    288.69947    251.63518   -3054.5062   -2625.0876   -32.109621    12356.628 
    2850    293.39938    251.79907   -3059.9691   -2623.5597    -206.0302    12358.856 
    2900    302.06305    252.05959    -3068.653   -2619.3571   -528.71548    12360.817 
    2950    304.83493    252.16604   -3072.2012   -2618.7823   -663.26987    12362.343 
    3000    295.01051    251.79492   -3059.8306   -2621.0249   -377.08652     12363.38 
    3050     301.9258    252.01547   -3067.1823   -2618.0905   -545.35012    12364.021 
    3100    285.69344     251.2799   -3042.6634   -2617.7161     99.52034    12364.273 
    3150    291.12086    251.34582   -3044.8606   -2611.8404   -11.441763    12364.402 
    3200    299.28894    251.68223   -3056.0744   -2610.9047   -208.95333    12364.368 
    3250    288.28149    251.17537   -3039.1789    -2610.382    307.26061    12364.122 
    3300    303.99094    251.81696   -3060.5653   -2608.4018   -242.00379    12363.831 
    3350    301.42982    251.72707   -3057.5689   -2609.2149    -286.8682    12363.285 
    3400    298.16591    251.63251    -3054.417   -2610.9178   -162.01229    12362.422 
    3450    292.27031    251.36527   -3045.5088   -2610.7789    63.464338    12361.346 
    3500    307.36781    251.80363   -3060.1209   -2602.9346     -304.654    12360.118 
    3550    304.66152    251.64783   -3054.9276   -2601.7667   -172.04087    12358.613 
    3600     301.7057    251.57487   -3052.4957   -2603.7313   -181.32358     12356.85 
    3650    306.66472    251.69331   -3056.4435    -2600.303   -402.57906    12354.821 
    3700     314.5322    251.98491   -3066.1637   -2598.3208   -533.66583    12352.417 
    3750    305.73289    251.65528    -3055.176   -2600.4215   -32.391264     12349.58 
    3800    306.37716    251.65771   -3055.2569   -2599.5441    99.903608    12346.542 
    3850    306.38403      251.661   -3055.3668   -2599.6438    113.19038     12343.41 
    3900    299.96521    251.46454   -3048.8179   -2602.6424    369.30583    12340.203 
    3950    307.06011    251.69157   -3056.3858   -2599.6572    351.30061    12337.031 
    4000    297.88524    251.30649   -3043.5497    -2600.468    755.59771    12333.938 
    4050    300.37446    256.38324   -3046.1079   -2599.3237    675.02933    12331.092 
    4100    294.71317    256.10971   -3036.9903   -2598.6268    839.38263    12328.505 
    4150    296.96184    256.22008   -3040.6694   -2598.9611    754.85603    12326.234 
    4200    315.64331    256.92173   -3064.0576   -2594.5621    128.98836    12324.217 
    4250    313.60644    256.81109   -3060.3695   -2593.9037    217.32955    12322.181 
    4300    307.91344    256.68987   -3056.3291   -2598.3312    410.31141    12320.121 
    4350     307.1891     256.6693   -3055.6433   -2598.7228    395.05668    12318.163 
    4400    311.51891    256.73642   -3057.8808     -2594.52    267.90861    12316.291 
    4450    304.66615    256.47775   -3049.2582   -2596.0904    568.83373    12314.428 
    4500    304.78943    256.48626    -3049.542   -2596.1908    607.80647    12312.729 
    4550    306.74711    256.58123   -3052.7076   -2596.4445    508.84885    12311.232 
    4600    306.39355    256.49071   -3049.6903   -2593.9532    565.93805    12309.892 
    4650    313.99421    256.81573   -3060.5245   -2593.4819    346.41352    12308.717 
    4700    311.13291    256.68857   -3056.2857   -2593.4991    511.93694     12307.61 
    4750    297.58709    256.25824   -3041.9415   -2599.3033    1002.5937     12306.68 
    4800    303.96335    256.44585   -3048.1948   -2596.0724    833.68186    12306.136 
    4850    304.88943     256.4225   -3047.4167   -2593.9167     848.0841    12305.929 
    4900    296.03399    256.04652   -3034.8839   -2594.5558    1129.6144     12306.09 
    4950    304.09885    256.32328   -3044.1094   -2591.7854     852.2665    12306.706 
    5000    307.30092    256.40781   -3046.9272   -2589.8403    888.69883    12307.674 
    5050    293.45436      251.059   -3035.2999   -2598.8088    1341.4884    12309.025 
    5100    308.19292    251.60514   -3053.5048   -2595.0912    810.23561    12310.902 
    5150    307.44278    251.53773   -3051.2578   -2593.9599    735.09155    12313.127 
    5200    303.51797    251.34893   -3044.9643   -2593.5043    711.33909    12315.631 
    5250    318.01375    251.93381   -3064.4604    -2591.439    168.34441    12318.337 
    5300    304.63198    251.44279   -3048.0931   -2594.9761    611.57029    12321.058 
    5350    311.28111    251.61317   -3053.7722   -2590.7651    515.08451     12323.94 
    5400    308.71326    251.55226    -3051.742   -2592.5544    512.38599     12326.96 
    5450    303.59738    251.42232   -3047.4105   -2595.8324    493.25255     12330.12 
    5500    307.01031    251.66487   -3055.4958   -2598.8412    264.99738    12333.398 
    5550    298.98969    251.37224   -3045.7415   -2601.0169    553.41534     12336.71 
    5600     312.2228    251.83428   -3061.1425   -2596.7348     143.6379    12340.137 
    5650    301.87746    251.45384   -3048.4613   -2599.4414    422.57311    12343.539 
    5700    289.30308    251.08365   -3036.1216   -2605.8052    658.84307    12347.025 
    5750    299.73033    251.39279   -3046.4262      -2600.6    182.93538    12350.705 
    5800    296.49611    251.42695    -3047.565   -2606.5495    166.08423    12354.369 
    5850    302.24567    251.65363   -3055.1209   -2605.5534   -76.003695    12357.976 
    5900    297.99313    251.47022   -3049.0073   -2605.7651   -21.436176    12361.437 
    5950    304.75168    251.82427   -3060.8091   -2607.5141    -347.7744    12364.715 
    6000    302.53553    251.79188   -3059.7292   -2609.7305   -386.10274    12367.679 
    6050    302.03336    251.87435   -3062.4783   -2613.2266   -457.28884    12370.277 
    6100    303.66835    251.98219   -3066.0729   -2614.3892   -549.81019    12372.465 
    6150    294.34344    251.71268   -3057.0892   -2619.2757   -318.71007    12374.229 
    6200     299.7635     251.9502   -3065.0068   -2619.1313   -493.95265    12375.643 
    6250     288.0778    251.50426   -3050.1421   -2621.6482   -95.387673    12376.668 
    6300    280.88899    251.23579   -3041.1928   -2623.3918    80.103351    12377.482 
    6350    283.24619    251.39983   -3046.6608   -2625.3536   -104.77405    12378.183 
    6400    288.17009     251.6304   -3054.3466   -2625.7154   -368.30803    12378.673 
    6450    286.54671    251.55001    -3051.667   -2625.4505   -408.63587    12378.836 
    6500    289.26776    251.74834    -3058.278   -2628.0141   -601.78861    12378.616 
    6550    286.18815    251.67908   -3055.9693   -2630.2861   -501.73569    12377.924 
    6600     279.5589    251.53547   -3051.1823   -2635.3596   -288.20478    12376.823 
    6650    278.11629    251.45897   -3048.6323   -2634.9554   -236.75169    12375.414 
    6700    277.57203     251.5093   -3050.3099   -2637.4426   -268.35817    12373.739 
    6750    291.41435    252.06422   -3068.8074   -2635.3507   -651.17404    12371.739 
    6800    280.25333    251.69127   -3056.3757   -2639.5202   -251.92186    12369.277 
    6850    286.17033    251.93046   -3064.3488   -2638.6921   -462.03036    12366.488 
    6900     284.4606    251.87338    -3062.446   -2639.3324   -484.74871    12363.318 
    6950    292.35937    252.18169   -3072.7229   -2637.8605   -717.80436    12359.718 
    7000    293.20196     252.2526   -3075.0866   -2638.9709   -739.55981    12355.571 
    7050    285.01693    251.95891   -3065.2969   -2641.3558   -522.09873    12350.866 
    7100    287.41527    251.98829   -3066.2764    -2638.768     -560.584     12345.71 
    7150    288.35696    252.03965   -3067.9885   -2639.0794   -461.03286      12340.1 
    7200    292.91091    252.26754   -3075.5848    -2639.902   -481.72975    12334.084 
    7250    298.46892    252.44224    -3081.408   -2637.4581   -605.73355    12327.638 
    7300    284.32578    252.04996   -3068.3319   -2645.4189   -200.52292    12320.733 
    7350    280.34069    251.82233   -3060.7443   -2643.7588    60.928701    12313.561 
    7400    282.86587    251.92135    -3064.045   -2643.3034    97.841111    12306.268 
    7450    292.42206    252.31757   -3077.2524   -2642.2968   -178.63871    12298.851 
    7500    289.24354    252.20273   -3073.4243   -2643.1964   -19.083436    12291.205 
    7550    290.54786    252.26999   -3075.6664   -2643.4985    43.008343    12283.389 
    7600    286.14953    252.10095   -3070.0317   -2644.4059    351.61481    12275.466 
    7650    291.16245    252.31372   -3077.1241   -2644.0421    345.97098    12267.566 
    7700    289.62149    252.16769   -3072.2563   -2641.4663    539.89287    12259.724 
    7750     288.4265    252.10323   -3070.1077   -2641.0952    655.36905    12252.034 
    7800    303.05793    252.74176   -3091.3921   -2640.6164    182.02644    12244.502 
    7850    295.70847    252.48351   -3082.7836   -2642.9397    452.05475     12236.97 
    7900    304.59973    252.80705   -3093.5683   -2640.4993    259.18536    12229.505 
    7950    288.28489    252.15563   -3071.8544   -2643.0525      974.707    12222.088 
    8000    283.34816    252.01157   -3067.0522   -2645.5933    1292.3984    12215.037 
    8050     298.9423    257.51903   -3083.9677   -2639.3137    856.71013     12208.52 
    8100    302.45733     257.5398   -3084.6599   -2634.7776    792.32545    12202.364 
    8150    302.41907    257.60958   -3086.9859   -2637.1605    839.65323    12196.502 
    8200    297.34327    257.34013   -3078.0042   -2635.7286    1133.5889    12190.975 
    8250    308.89291    257.73801   -3091.2668    -2631.812    875.64895    12185.894 
    8300    297.02794    257.32994   -3077.6645    -2635.858    1319.0279    12181.205 
    8350    304.49858    257.51167   -3083.7224   -2630.8039    1120.7251    12177.072 
    8400    311.65507    257.72815   -3090.9383    -2627.375    989.30553    12173.421 
    8450     301.7673    257.32068    -3077.356      -2628.5    1441.6317    12170.197 
    8500    293.83373    256.99272   -3066.4239   -2629.3685    1750.4259     12167.61 
    8550    298.18246    257.07008   -3069.0026   -2625.4788    1691.3752     12165.83 
    8600    307.02685    257.41227   -3080.4091     -2623.73    1350.1376    12164.836 
    8650    304.35199    257.26215    -3075.405   -2622.7045    1466.8348    12164.461 
    8700    312.80686    257.60565   -3086.8549   -2621.5784    1188.6459    12164.719 
    8750    309.47927    257.41499   -3080.4995   -2620.1725    1316.9576    12165.519 
    8800    301.05372    256.98411   -3066.1368   -2618.3422    1707.0576    12166.904 
    8850    298.07217    256.89597   -3063.1991   -2619.8394    1829.7522    12169.089 
    8900    320.37842    257.79197   -3093.0658   -2616.5272    1008.9475    12172.075 
    8950    310.66784    257.33669   -3077.8895   -2615.7947    1298.9037    12175.546 
    9000    297.74364    256.78972   -3059.6575   -2616.7864    1745.7338    12179.612 
    9050     317.1711    257.44246   -3081.4152   -2609.6472    1033.3425    12184.448 
    9100    322.02071    257.55894   -3085.2979   -2606.3165    854.18784    12189.758 
    9150    303.01895    256.82588   -3060.8628   -2610.1451    1523.9599    12195.446 
    9200    317.16967    257.38929   -3079.6429   -2607.8771    1077.3343    12201.771 
    9250    295.65722    256.56524   -3052.1746   -2612.4069    1793.2843    12208.662 
    9300    301.30933    256.72137   -3057.3791   -2609.2043    1586.5327    12216.371 
    9350    308.77648    256.91667   -3063.8889   -2604.6073    1270.9249    12224.837 
    9400    306.04953    256.75353    -3058.451   -2603.2255    1338.9347    12233.911 
    9450    321.24687    257.18015   -3072.6717   -2594.8414    858.40464    12243.583 
    9500      315.994    257.02809   -3067.6031    -2597.586    904.00358    12253.641 
    9550    311.23637    256.84178   -3061.3925    -2598.452    981.49263    12264.091 
    9600    295.55073    256.12041    -3037.347   -2597.7377    1456.7518    12275.011 
    9650    293.26871    255.99656   -3033.2187   -2597.0037    1478.2904     12286.59 
    9700    295.82971    256.04799   -3034.9328   -2594.9086    1226.4271    12298.874 
    9750    317.47859    256.82891   -3060.9636   -2588.7383    457.34451    12311.705 
    9800    307.41833    256.36331   -3045.4436   -2588.1821    713.60723    12324.757 
    9850    310.80936    256.39517   -3046.5057   -2584.2004    503.19997    12338.058 
    9900    300.28631    255.86315   -3028.7716   -2582.1185     753.2855    12351.562 
    9950    297.79168    255.72635   -3024.2117   -2581.2691    727.38508    12365.371 
   10000    307.45788    256.00119   -3033.3729   -2576.0526    298.06701    12379.461 
   10050    306.48431    260.95825   -3031.9415   -2576.0693    211.42041    12393.626 
   10100    306.46207    260.92824   -3030.9413   -2575.1022    176.68073    12407.804 
   10150     310.5679    260.95459   -3031.8197   -2569.8734    78.193626    12421.979 
   10200    316.13999     261.0574   -3035.2467   -2565.0124   -80.463834    12436.094 
   10250    310.19059    260.69122   -3023.0407   -2561.6557    43.746283    12450.073 
   10300    310.36402    260.61108   -3020.3694   -2558.7265   -33.155066    12463.951 
   10350    306.21522    260.38468   -3012.8226   -2557.3506   -31.641792      12477.7 
   10400    312.74256    260.55524    -3018.508   -2553.3271   -419.16362    12491.278 
   10450     301.1789    260.12843   -3004.2809   -2556.3001   -239.78309    12504.524 
   10500    307.49635     260.2885   -3009.6167   -2552.2392   -497.60226    12517.468 
   10550    305.71868    260.10655   -3003.5515   -2548.8182   -400.03946    12530.026 
   10600    303.22287    259.90988    -2996.996   -2545.9749   -284.40861    12542.214 
   10650    311.84928     260.1467   -3004.8901   -2541.0379   -668.36511    12554.079 
   10700    305.91699    259.92107   -2997.3691   -2542.3408   -637.91674     12565.45 
   10750    294.72904    259.52229   -2984.0765   -2545.6894    -313.0472    12576.315 
   10800     291.2641     259.3066   -2976.8866   -2543.6534   -163.61807    12586.857 
   10850    300.80916    259.67553   -2989.1842   -2541.7534    -499.2456    12597.142 
   10900    288.54419    259.13237   -2971.0788   -2541.8912   -195.79959    12607.042 
   10950    292.98257    259.20767   -2973.5891   -2537.7997   -468.73265    12616.656 
   11000    303.49146    259.60884   -2986.9614   -2535.5408   -1004.0803    12625.844 
   11050      298.002    259.46915    -2982.305   -2539.0496   -901.48781    12634.331 
   11100    301.16399    259.56653   -2985.5509   -2537.5923     -979.807    12642.132 
   11150    303.21873    259.60294   -2986.7646   -2535.7497   -1013.8091    12649.222 
   11200    299.05059    259.46036    -2982.012   -2537.1969   -839.36303    12655.595 
   11250    294.42019    259.25837    -2975.279   -2537.3513   -675.62239    12661.334 
   11300    295.44875    259.27118    -2975.706   -2536.2484   -779.32818    12666.515 
   11350    294.07948    259.21107   -2973.7022   -2536.2813   -848.45301    12671.107 
   11400    296.91905    259.21825   -2973.9415    -2532.297   -881.28576    12675.067 
   11450    293.39566    259.05139   -2968.3797   -2531.9759   -776.33649    12678.387 
   11500    288.47718    258.92586   -2964.1954   -2535.1074   -623.99088    12681.105 
   11550    279.35969    258.55168   -2951.7226   -2536.1962   -341.47694    12683.356 
   11600    292.03449    258.99711   -2966.5705   -2532.1913   -784.16903    12685.239 
   11650    285.31739    258.69901   -2956.6337   -2532.2457   -532.81655    12686.566 
   11700    291.17764    258.95111   -2965.0369   -2531.9322   -699.68124    12687.411 
   11750    310.94997    259.67165    -2989.055   -2526.5405    -1391.018    12687.693 
   11800    310.57014    259.60512   -2986.8374   -2524.8878   -1312.6554    12687.067 
   11850    290.23288    258.80022   -2960.0073   -2528.3079   -472.51081    12685.592 
   11900    302.58783     259.1841   -2972.8032   -2522.7268   -823.70944    12683.655 
   11950    312.79748    259.62508   -2987.5027   -2522.2401   -1236.0643    12681.092 
   12000     283.9062    258.51781   -2950.5938   -2528.3048   -307.14894    12677.782 
   12050    296.15889    254.02471   -2967.4904   -2526.9765   -602.03474    12674.079 
   12100    287.68017    253.62565   -2954.1883   -2526.2859   -263.13683    12669.951 
   12150    301.31867    254.16713   -2972.2378   -2524.0491   -738.96339    12665.489 
   12200     316.8109    254.71768   -2990.5894   -2519.3572   -1229.8742     12660.47 
   12250    307.43583    254.34601   -2978.2002   -2520.9127   -817.61913    12654.652 
   12300    305.51929    254.30184   -2976.7279   -2522.2911   -615.52387    12648.209 
   12350    312.62271    254.55295   -2985.0983   -2520.0957   -759.78592    12641.273 
   12400    303.26195    254.24264   -2974.7546   -2523.6754   -423.45837     12633.79 
   12450    299.22377    254.04713   -2968.2378   -2523.1651   -224.11321    12625.922 
   12500    309.74777    254.48188   -2982.7294   -2522.0031   -468.03378    12617.779 
   12550    318.69357    254.80025   -2993.3418   -2519.3093   -603.21395     12609.26 
   12600    315.89427    254.72081   -2990.6938    -2520.825   -405.53385    12600.311 
   12650     316.3893    254.75327   -2991.7758   -2521.1707   -255.40077    12590.997 
   12700    296.83681    254.03157   -2967.7192   -2526.1969    584.24283    12581.489 
   12750    298.09984    254.00407   -2966.8023   -2523.4014    713.22193    12572.181 
   12800    300.97887    254.08113   -2969.3711   -2521.6878     551.3048    12563.173 
   12850    305.30309    254.25324   -2975.1079   -2520.9926     490.8923    12554.378 
   12900     310.4965     254.5147   -2983.8234   -2521.9834    432.11663    12545.759 
   12950    321.57915    254.93198   -2997.7328   -2519.4081    98.518846     12537.27 
   13000    317.95883    254.87561   -2995.8536   -2522.9139    234.22163    12528.762 
   13050    306.80873    259.43711   -2981.2372   -2524.8824     718.7723    12520.306 
   13100    309.19716    259.58551   -2986.1836   -2526.2762     726.6236    12512.142 
   13150    308.51248    259.55488   -2985.1625   -2526.2736    745.11329    12504.309 
   13200    305.58965    259.55361   -2985.1205   -2530.5791     811.8147    12496.828 
   13250    323.40348    260.11669   -3003.8897   -2522.8516    326.94608    12489.692 
   13300     321.9578    260.15964   -3005.3214   -2526.4335    369.82208    12482.669 
   13350    310.78416    259.83758   -2994.5861   -2532.3183    810.12553    12475.781 
   13400    306.23836    259.70701   -2990.2335   -2534.7272    990.73833    12469.258 
   13450    307.55901    259.73114   -2991.0381   -2533.5674    931.48565    12463.185 
   13500    312.29628    259.92578   -2997.5261   -2533.0091    734.52954    12457.562 
   13550    318.95885    260.29694   -3009.8979   -2535.4708    450.52122    12452.257 
   13600    305.07725     259.8062   -2993.5399   -2539.7606    928.85279    12447.151 
   13650     306.7623    259.97085   -2999.0283   -2542.7427    964.20956    12442.437 
   13700     308.9724    260.08804   -3002.9347   -2543.3616    975.43322    12438.175 
   13750    330.27943     261.0151   -3033.8368   -2542.5712    173.04455    12434.324 
   13800    335.07311    261.25311   -3041.7705   -2543.3746   -111.88027     12430.49 
   13850    308.42147    260.40871   -3013.6237   -2554.8701    749.51053    12426.535 
   13900    297.54846    259.95917   -2998.6389   -2556.0581    1138.5822    12422.887 
   13950    301.98151    260.22784   -3007.5946     -2558.42    800.15139    12419.744 
   14000    317.55257    260.91475   -3030.4918   -2558.1564    180.93126    12416.923 
   14050    313.39046    255.77723   -3025.9078   -2559.7632    307.77263    12414.143 
   14100    305.53248    255.57061   -3019.0204    -2564.564    494.18152    12411.418 
   14150    315.54987    256.03297   -3034.4324   -2565.0759    76.185234    12408.806 
   14200    307.94196    255.79508   -3026.5026   -2568.4622    409.40682    12406.154 
   14250    286.13648    255.05946    -3001.982   -2576.3756    1185.1545    12403.645 
   14300    296.76919    255.44789   -3014.9297   -2573.5081    771.29471     12401.63 
   14350     312.4355    256.14891   -3038.2969   -2573.5728    160.65732    12399.902 
   14400     293.4061    255.45363   -3015.1211   -2578.7017    806.57687     12398.22 
   14450    297.20663    255.71899   -3023.9663    -2581.894    664.33062    12396.814 
   14500    311.89128    256.28542   -3042.8474   -2578.9327    156.22925    12395.625 
   14550     305.4586    256.04221   -3034.7402   -2580.3937    362.27735    12394.436 
   14600     295.0197    255.76123   -3025.3745   -2586.5551    662.26186     12393.33 
   14650    299.31225    255.91884   -3030.6279   -2585.4236    426.27849    12392.455 
   14700    314.56943    256.47789   -3049.2631   -2581.3649   -102.14024    12391.657 
   14750    305.25396    256.12427   -3037.4758   -2583.4337    262.99244    12390.705 
   14800     297.3292    255.81439   -3027.1463   -2584.8916    600.11705    12389.761 
   14850    302.39097    256.00479   -3033.4929   -2583.7092     446.7638    12389.014 
   14900    303.17955    255.98838   -3032.9459   -2581.9893    372.12339    12388.396 
   14950    300.77828    255.94114   -3031.3714   -2583.9865    468.48523    12387.844 
   15000    291.21821    255.67105   -3022.3685   -2589.2034    767.55117    12387.441 
   15050     301.4497    256.04212   -3034.7374   -2586.3538    429.69027     12387.29 
   15100    293.81472    255.79157   -3026.3856   -2589.3585    601.75516      12387.3 
   15150    307.84481    256.27814   -3042.6046   -2584.7088    149.28425    12387.479 
   15200    300.54594    256.05173   -3035.0575   -2588.0182    335.85586    12387.644 
   15250    305.15991    256.20433   -3040.1445   -2586.2423    150.34312    12387.828 
   15300    304.16624    256.22241   -3040.7469   -2588.3227     149.5185    12387.984 
   15350      305.899    256.31371   -3043.7902   -2588.7886     219.7341    12388.083 
   15400    297.77257    256.03378   -3034.4593   -2591.5452     455.0874    12388.175 
   15450    306.50307    256.43926   -3047.9755   -2592.0754   -23.026138    12388.345 
   15500    313.97235    256.67648   -3055.8828   -2588.8727   -285.16945    12388.383 
   15550    300.29389    256.08147    -3036.049   -2589.3846    301.83136     12388.16 
   15600    285.11356    255.55192   -3018.3973   -2594.3125    844.36896    12387.956 
   15650    283.23901    255.50571    -3016.857   -2595.5604    844.75127    12388.079 
   15700    296.43047    255.97491    -3032.497   -2591.5791    333.42349    12388.525 
   15750    295.54581    255.92334    -3030.778    -2591.176    305.05753    12389.069 
   15800    309.28887    256.42525   -3047.5084   -2587.4647   -129.32151     12389.61 
   15850    307.78604    256.45041    -3048.347   -2590.5386   -112.44771    12389.959 
   15900    295.53993    256.04745   -3034.9151   -2595.3218    272.22443    12390.128 
   15950    289.36397    255.80439   -3026.8131   -2596.4061    625.36678    12390.297 
   16000    285.14456     255.6064   -3020.2134   -2596.0824    937.97839    12390.696 
   16050    296.93817    261.03607   -3034.5356   -2592.8626    486.71489    12391.466 
   16100    302.84146    261.37123   -3045.7076   -2595.2539    111.21883     12392.39 
   16150    284.78294    260.75996   -3025.3319   -2601.7388    621.04818    12393.306 
   16200    293.98902    261.09873   -3036.6244    -2599.338    330.26793    12394.391 
   16250    291.70487    261.01771   -3033.9237   -2600.0348    381.77401    12395.562 
   16300    299.02605    261.14678   -3038.2258   -2593.4473    155.20176    12396.809 
   16350    307.12319    261.43597   -3047.8656   -2591.0431   -194.17981    12398.022 
   16400    306.37887    261.46546   -3048.8487   -2593.1334   -206.32048    12399.012 
   16450    300.49453    261.28109    -3042.703   -2595.7402    109.64103    12399.757 
   16500     282.3249    260.61227   -3020.4089    -2600.472    794.50432     12400.47 
   16550    286.25714    260.81412   -3027.1372   -2601.3514    577.70574    12401.474 
   16600    290.27251    260.87868   -3029.2895   -2597.5311    417.15802    12402.683 
   16650    285.20921    260.61661   -3020.5535   -2596.3264    588.47757    12404.022 
   16700    292.08422    260.94518    -3031.506   -2597.0529    296.03771    12405.535 
   16750    282.27491    260.61244   -3020.4146    -2600.552    545.67287    12407.134 
   16800    293.19011    261.00986   -3033.6621    -2597.564     147.0905    12408.855 
   16850    295.63087    261.07595   -3035.8652   -2596.1367   -21.649833    12410.556 
   16900    300.72775     261.2673   -3042.2432   -2594.9335   -199.19354    12412.118 
   16950    299.31751    261.22889    -3040.963   -2595.7509    10.629889    12413.461 
   17000    288.42892    260.83014   -3027.6715   -2598.6553    433.95895    12414.715 
   17050    304.76928    256.44292   -3048.0973   -2594.7761    -234.3044     12416.02 
   17100    310.11816    256.50572   -3050.1908   -2588.9135   -466.54468    12417.061 
   17150    290.73718     255.7068   -3023.5601   -2591.1106    223.77591    12417.742 
   17200    302.26799    256.05603   -3035.2009   -2585.6002   -42.576993    12418.355 
   17250    306.03532    256.12034   -3037.3446   -2582.1403   -92.530298    12418.816 
   17300    301.69277    255.97861   -3032.6205   -2583.8753    137.58609    12419.081 
   17350      290.408     255.5807   -3019.3566   -2587.3967    506.47485    12419.299 
   17400    287.58239    255.43954   -3014.6513   -2586.8943    639.98335    12419.655 
   17450    296.66362    255.64914   -3021.6379   -2580.3733    418.96619    12420.207 
   17500    292.65906    255.49688   -3016.5627   -2581.2545     433.8215     12420.88 
   17550    303.10452    255.95884   -3031.9612   -2581.1162    94.907868     12421.63 
   17600    283.12211    255.18741   -3006.2469   -2585.1243    824.59179    12422.369 
   17650    293.77981     255.5664     -3018.88   -2581.9048    522.43479    12423.356 
   17700    293.06046    255.50882   -3016.9605   -2581.0553    555.78766    12424.537 
   17750    292.42387    255.40449   -3013.4831   -2578.5248    690.35564    12425.886 
   17800    289.58624    255.16315   -3005.4383   -2574.7007    872.83365     12427.49 
   17850    300.84769    255.59169   -3019.7229   -2572.2347    410.18634    12429.413 
   17900    316.53051    256.24827   -3041.6089   -2570.7937   -315.65463    12431.408 
   17950    323.46459    256.36263   -3045.4209   -2564.2919   -569.60912    12433.091 
   18000    306.27392    255.64147   -3021.3824   -2565.8232    94.773493    12434.355 
   18050    298.14825    255.30493   -3010.1642   -2566.6913    484.85844     12435.51 
   18100     305.5308    255.58846   -3019.6153   -2565.1614    295.08049    12436.749 
   18150     303.7284    255.45234    -3015.078    -2563.305    324.25993     12438.03 
   18200    305.72093    255.39328   -3013.1094   -2558.3727    202.82642    12439.344 
   18250    307.34816    255.44352   -3014.7839   -2557.6268    174.79741    12440.634 
   18300    310.77464    255.61808   -3020.6028   -2558.3491    165.15455     12441.87 
   18350    306.85117    255.40114   -3013.3714   -2556.9535    366.62444    12443.055 
   18400    306.59445    255.42455   -3014.1516   -2558.1156    347.79862    12444.293 
   18450    314.85502    255.68541   -3022.8469   -2554.5239    142.37606     12445.58 
   18500    309.96386    255.50016   -3016.6719   -2555.6241    310.72509    12446.814 
   18550    298.32104    255.04215    -3001.405   -2557.6751    714.35382     12448.09 
   18600    297.56442    254.93947   -2997.9825    -2555.378    828.98482    12449.606 
   18650    310.33066    255.38502   -3012.8341   -2551.2408    481.99849    12451.411 
   18700    316.15346    255.57584   -3019.1946   -2548.9403     247.4017    12453.344 
   18750    319.73474    255.69628   -3023.2093   -2547.6281    63.062179    12455.259 
   18800    319.32749    255.66118   -3022.0394    -2547.064    47.133649    12457.058 
   18850    312.66512    255.42812   -3014.2707    -2549.205    270.06206    12458.742 
   18900    314.14101    255.53097    -3017.699   -2550.4381    194.67621    12460.424 
   18950    309.08295     255.2619     -3008.73   -2548.9925    429.57326    12462.081 
   19000    298.39299    254.78612   -2992.8708   -2549.0338    836.13797    12463.826 
   19050    305.23498    260.01971   -3000.6568   -2546.6429    624.94276    12465.865 
   19100    314.79638    260.38711   -3012.9037   -2544.6679    247.30595    12468.118 
   19150    318.93113    260.53901    -3017.967   -2543.5811    114.03497    12470.374 
   19200    292.38101    259.47994   -2982.6646     -2547.77    1003.7715    12472.634 
   19250    304.05132    259.94195   -2998.0651   -2545.8118    678.40477    12475.227 
   19300    290.73594    259.46271   -2982.0904   -2549.6427    1048.5108    12478.123 
   19350    308.83902    260.06185   -3002.0617    -2542.687    401.75375    12481.394 
   19400     309.7927    260.01059   -3000.3529   -2539.5598    314.78646    12484.791 
   19450    298.68948    259.67234   -2989.0781   -2544.8002    536.82752    12488.234 
   19500    308.65996    260.10966   -3003.6554   -2544.5471    115.85391    12491.793 
   19550    316.99991    260.35861   -3011.9536   -2540.4403   -106.04048    12495.282 
   19600    297.18738    259.60897   -2986.9657    -2544.922     611.3775    12498.605 
   19650    300.44056    259.68473    -2989.491   -2542.6084    509.61275    12502.079 
   19700    306.95869    259.96122   -2998.7072   -2542.1294    193.04435    12505.687 
   19750    297.07183     259.6049     -2986.83   -2544.9582    467.94801    12509.279 
   19800     295.3234    259.60681   -2986.8936   -2547.6224    540.44909    12512.976 
   19850    304.99379    259.87518   -2995.8395   -2542.1843     238.7582     12516.82 
   19900    305.76173    260.10398    -3003.466   -2548.6686    115.25907    12520.642 
   19950    292.45865    259.47857    -2982.619   -2547.6089    541.89044    12524.422 
   20000    297.14441    259.52001   -2984.0002   -2542.0204    293.36684    12528.313 
   20050    291.94791     264.4004   -2980.0135   -2545.7631    264.73251    12532.233 
   20100     302.2668    264.76372    -2992.124   -2542.5251   -62.056993    12536.142 
   20150    306.97335    264.97728   -2999.2426    -2542.643   -244.96851    12539.887 
   20200     300.2944    264.72017   -2990.6724   -2544.0072   -92.383678    12543.363 
   20250    289.90515    264.21539   -2973.8462   -2542.6343    173.98983    12546.661 
   20300    296.28211    264.45557   -2981.8523   -2541.1551   -81.123826    12549.895 
   20350    292.25913    264.32921   -2977.6404   -2542.9271    74.394285    12552.981 
   20400    290.29182    264.21143   -2973.7144   -2541.9273    178.22815    12555.987 
   20450    300.79507      264.653   -2988.4332   -2541.0233   -292.33338    12558.931 
   20500    303.78228    264.86538   -2995.5128   -2543.6596   -544.73337    12561.584 
   20550    296.99186    264.59433   -2986.4775   -2544.7246   -271.49313    12563.825 
   20600    291.06982    264.40851   -2980.2836   -2547.3393    -27.98942    12565.791 
   20650    292.40211    264.42318   -2980.7726   -2545.8466   -94.404337    12567.599 
   20700    300.24165    264.75886    -2991.962   -2545.3753   -451.54074    12569.218 
   20750    312.76405    265.16011   -3005.3369   -2540.1241   -785.48664    12570.455 
   20800    297.67394    264.48662   -2982.8873   -2540.1199   -188.53172    12571.172 
   20850    303.39828    264.66064   -2988.6878   -2537.4059   -318.58131    12571.603 
   20900    286.29153    263.98727   -2966.2423   -2540.4053    249.17264    12571.802 
   20950    300.18914    264.54653   -2984.8843   -2538.3757    -181.7702    12571.961 
   21000    310.40439     264.9445   -2998.1499   -2536.4469   -548.67616     12571.91 
   21050    300.11393     264.5126   -2983.7532   -2537.3565   -156.46432    12571.466 
   21100    295.89068    264.34338   -2978.1128   -2537.9979    97.873826    12570.826 
   21150    293.74806    264.32547   -2977.5157   -2540.5877    282.77269    12570.134 
   21200    292.66307    264.32813   -2977.6043   -2542.2901    333.40705    12569.493 
   21250     298.6102     264.5653     -2985.51   -2541.3499    12.618444    12568.937 
   21300    306.83409    264.91915   -2997.3049   -2540.9125   -329.15728    12568.264 
   21350    289.93879    264.14645   -2971.5482   -2540.2862    288.22166     12567.37 
   21400    293.35458    264.20644   -2973.5479   -2537.2052    254.05935    12566.498 
   21450    307.65989    264.83914    -2994.638   -2537.0173    -221.9909     12565.64 
   21500    312.26251    264.97587   -2999.1957   -2534.7289    -393.7596    12564.579 
   21550    315.55891    265.12228    -3004.076   -2534.7061   -457.20877     12563.18 
   21600    294.29611    264.09888   -2969.9627   -2532.2196     400.5047    12561.497 
   21650    297.60422    264.24714   -2974.9046   -2532.2409    303.31779    12559.884 
   21700    298.30749    264.34707   -2978.2357   -2534.5259    232.88091    12558.345 
   21750     293.5492    264.15276   -2971.7587   -2535.1265    382.44884    12556.847 
   21800    297.47527    264.29447   -2976.4825   -2534.0106    228.95354    12555.463 
   21850    310.63232    264.70333   -2990.1109   -2528.0689     -151.146    12554.104 
   21900    293.22894    264.10084   -2970.0281   -2533.8723    509.49625    12552.627 
   21950    295.80964    264.17295   -2972.4316   -2532.4372    474.72516    12551.309 
   22000    322.43184    265.21367   -3007.1222   -2527.5292    -430.8822    12550.112 
   22050    312.99722    264.80928   -2993.6425   -2528.0829   -14.397076    12548.633 
   22100    295.57155    264.20498   -2973.4993    -2533.859    656.53262    12547.061 
   22150    305.11427    264.65284   -2988.4281   -2534.5937    295.47867    12545.702 
   22200    296.08741    264.12578   -2970.8593   -2530.4517    527.07693     12544.47 
   22250     316.2062    264.78396   -2992.7986   -2522.4659   -80.758704     12543.38 
   22300    306.14128    264.37105   -2979.0351   -2523.6732    308.42334    12542.208 
   22350    306.50379    264.38567   -2979.5225   -2523.6213    402.74879    12541.083 
   22400    313.99831    264.61861    -2987.287   -2520.2383    289.13428    12540.064 
   22450    313.05359    264.54577    -2984.859   -2519.2155    339.09063    12539.118 
   22500     308.1842    264.38017    -2979.339   -2520.9383    442.80653    12538.268 
   22550    302.77192    264.15122   -2971.7075   -2521.3572    545.03414    12537.587 
   22600    314.76608    264.57983   -2985.9942   -2517.8035    177.62416    12537.085 
   22650    312.77809    264.51227   -2983.7423   -2518.5086    247.75311    12536.607 
   22700    323.13174    264.94961   -2998.3204   -2517.6864   -31.478118    12536.108 
   22750    301.45595    264.26832   -2975.6105   -2527.2176    709.49255    12535.547 
   22800    309.14391    264.49475   -2983.1584   -2523.3303    524.34711    12535.236 
   22850    303.81065    264.26984   -2975.6612   -2523.7659    680.46195    12535.143 
   22900    316.31637    264.72463   -2990.8211   -2520.3244    265.35378    12535.289 
   22950    311.60145    264.53257   -2984.4192   -2520.9356    286.65151    12535.518 
   23000    312.24926    264.62577   -2987.5256   -2523.0785    188.03544    12535.773 
   23050    305.82291    264.35216   -2978.4053   -2523.5169     375.8596    12536.042 
   23100    307.47154    264.39834   -2979.9445   -2522.6039    372.45878    12536.386 
   23150    289.47573    263.71724   -2957.2412    -2526.668    981.26742    12536.879 
   23200    301.17259    264.23264   -2974.4215   -2526.4501    496.47234    12537.762 
   23250    308.00403    264.54704   -2984.9014   -2526.7688    230.43184    12538.826 
   23300     295.6258    264.13101   -2971.0336   -2531.3127    656.68218    12539.941 
   23350    302.48273    264.43226   -2981.0752   -2531.1551    364.58458    12541.261 
   23400    302.55061    264.39278   -2979.7593   -2529.7382    258.19442     12542.68 
   23450    304.40548    264.51943   -2983.9808   -2531.2007    146.65948    12544.129 
   23500    301.07844     264.3845   -2979.4833   -2531.6519    229.67471    12545.559 
   23550    305.57279    264.48377   -2982.7922   -2528.2758    59.166672    12546.971 
   23600    305.59407    264.51168   -2983.7227   -2529.1747    81.147459    12548.299 
   23650    310.44103    264.83449   -2994.4831   -2532.7256   -97.375408    12549.536 
   23700    300.11355    264.43614   -2981.2048   -2534.8086    207.27896    12550.635 
   23750    307.92117    264.76077   -2992.0258   -2534.0164   -38.031081    12551.687 
   23800    311.38873    264.91785   -2997.2618   -2534.0947   -277.03595    12552.605 
   23850    303.99496    264.75667   -2991.8889   -2539.7195   -165.23502    12553.256 
   23900    296.85499     264.4606   -2982.0201   -2540.4708    159.50455    12553.705 
   23950    282.60332    263.94712   -2964.9041   -2544.5531     632.2983    12554.154 
   24000    286.38902    264.17501   -2972.5005   -2546.5185    461.95003    12554.817 
   24050    283.97572    264.09061    -2969.687   -2547.2946     507.9065    12555.661 
   24100    296.26892    264.51945   -2983.9816   -2543.3041    111.31854    12556.651 
   24150    303.66809    264.83622   -2994.5406   -2542.8574   -147.03999    12557.595 
   24200    297.18894    264.61919   -2987.3063   -2545.2603    60.219069    12558.372 
   24250    298.26042    264.71931   -2990.6435   -2547.0038   -62.958196    12559.046 
   24300    301.06258    264.84449   -2994.8163   -2547.0085    -227.5571    12559.564 
   24350    302.42815    264.93358   -2997.7859    -2547.947   -373.94122    12559.846 
   24400    297.66594    264.76634   -2992.2112   -2549.4557   -299.13425    12559.814 
   24450    297.63214    264.71401   -2990.4668   -2547.7616    -256.4365    12559.494 
   24500    299.53459    264.94351    -2998.117    -2552.582   -368.98737    12558.912 
   24550    301.27863    265.08086   -3002.6953   -2554.5662   -499.78252    12558.004 
   24600    306.09664    265.19078   -3006.3593   -2551.0637   -654.35827    12556.697 
   24650    288.50502    264.57568    -2985.856   -2556.7266   -28.011266    12554.964 
   24700    282.20742    264.37807   -2979.2689   -2559.5067    163.12361    12553.098 
   24750    301.31057    265.19514   -3006.5045   -2558.3279   -637.63736     12551.18 
   24800    295.18134    265.05075   -3001.6917   -2562.6318   -550.90934    12548.866 
   24850    287.93801    264.76617   -2992.2058   -2563.9198   -188.56032    12546.164 
   24900    284.55632    264.69813   -2989.9378   -2566.6819   -50.025705    12543.251 
   24950    282.60401    264.71874   -2990.6248   -2570.2727   -72.681373    12540.213 
   25000     282.4557    264.73588    -2991.196   -2571.0646   -94.600286    12537.071 
   25050    300.94273    265.41575   -3013.8582   -2566.2287   -696.86069    12533.755 
   25100    297.46825    265.25786   -3008.5954    -2566.134    -567.0391    12530.014 
   25150    298.40449    265.32526   -3010.8421    -2566.988   -537.72935    12525.855 
   25200    292.25822    265.17189   -3005.7298   -2571.0179   -266.17447    12521.321 
   25250    276.10102    264.56186   -2985.3952   -2574.7158    317.23351    12516.603 
   25300    291.96387    265.09882   -3003.2938   -2569.0197   -212.53511    12511.941 
   25350    295.55427    265.24752   -3008.2507   -2568.6361    -334.8061    12507.115 
   25400    291.37608    265.11227   -3003.7422   -2570.3424   -165.93745     12502.04 
   25450    294.98958    265.29503   -3009.8342   -2571.0595   -273.10563     12496.79 
   25500    284.70419    264.93622   -2997.8741   -2574.3982    123.31959     12491.35 
   25550    282.35386    264.91446   -2997.1488   -2577.1688     248.9179    12485.904 
   25600     293.7818    265.46116   -3015.3721    -2578.394   -199.76064    12480.522 
   25650     303.8728    265.86147   -3028.7155   -2576.7278    -496.1039    12474.977 
   25700    294.86077    265.50306   -3016.7685   -2578.1855   -50.460181    12469.141 
   25750     308.7769    266.05488   -3035.1627   -2575.8804   -337.71827    12463.157 
   25800    286.03092    265.07954   -3002.6513    -2577.202    547.07838    12457.003 
   25850    293.93053    265.50887   -3016.9622   -2579.7629    303.63189    12451.015 
   25900    296.88949     265.7347   -3024.4899   -2582.8893    168.92056    12445.182 
   25950    298.56365    265.70048   -3023.3493   -2579.2585    155.48141    12439.399 
   26000    302.22616    265.82425    -3027.475   -2577.9365    120.08169    12433.625 
   26050    290.73939    260.36527   -3012.1758   -2579.7229    558.91155    12427.891 
   26100    296.95019    260.55915   -3018.6384   -2576.9475     386.4508    12422.362 
   26150    305.72519    260.87263   -3029.0875   -2574.3445    127.52921    12416.968 
   26200    310.09869    261.14766   -3038.2552   -2577.0069   -3.6300049    12411.565 
   26250    305.30791    260.89905   -3029.9684   -2575.8461    322.48383    12406.119 
   26300    299.75534    260.73207   -3024.4025   -2578.5391    599.30559    12400.781 
   26350    310.03311    261.10212   -3036.7372   -2575.5865    261.35492    12395.646 
   26400    303.81777    260.91341    -3030.447   -2578.5411    493.29851    12390.614 
   26450    303.21271    260.99516   -3033.1719   -2582.1659    612.50987    12385.773 
   26500    296.46229    260.76517   -3025.5056   -2584.5404     949.3173     12381.21 
   26550    298.19494    260.79351   -3026.4502   -2582.9078    956.09288    12377.087 
   26600    308.84084    261.19841   -3039.9471   -2580.5697    577.74148    12373.392 
   26650    299.91953    260.87038   -3029.0128   -2582.9052    915.93104    12369.965 
   26700    284.88949    260.36183   -3012.0611   -2588.3096    1434.3222    12366.967 
   26750    292.04951    260.65708   -3021.9027   -2587.5012    1128.7248    12364.634 
   26800    309.87608    261.35737   -3045.2455   -2584.3284    446.87732    12362.817 
   26850    300.44647    261.00335   -3033.4449   -2586.5535    813.55291    12361.199 
   26900    284.25743    260.33646   -3011.2152   -2588.4038     1409.169    12359.956 
   26950    299.17591    260.89517   -3029.8389   -2584.8374    894.92816    12359.329 
   27000    295.54997    260.76446   -3025.4821   -2585.8739    1053.3195    12359.134 
   27050    289.34846    260.61324   -3020.4412   -2590.0573    1292.5698    12359.404 
   27100    296.08829    260.82528   -3027.5093   -2587.1004    1015.6893    12360.263 
   27150    297.52135    260.92777   -3030.9256   -2588.3851    834.26671    12361.573 
   27200    304.81454     261.2074   -3040.2468   -2586.8583    537.94515    12363.207 
   27250    310.93782    261.40942   -3046.9808   -2584.4844     260.1113    12365.016 
   27300    299.61791    261.14916   -3038.3053   -2592.6463    477.51944    12366.857 
   27350    297.15165     261.1345   -3037.8165    -2595.826    407.54889    12368.828 
   27400    302.88479    261.29714   -3043.2378   -2592.7197    132.77054    12370.905 
   27450    302.30844    261.34275   -3044.7585   -2595.0976    143.44267    12372.932 
   27500    289.68951    260.97616   -3032.5386   -2601.6474    542.18084    12374.927 
   27550    281.94659    260.71428   -3023.8093   -2604.4351    689.21109     12377.09 
   27600     288.8284    261.02502   -3034.1673   -2604.5569    371.34159    12379.492 
   27650    294.06575    261.28716   -3042.9054   -2605.5048    188.44856    12381.975 
   27700    283.23362    260.90375   -3030.1249   -2608.8364    541.42059    12384.471 
   27750    290.97547    261.14089   -3038.0297   -2605.2257    294.71137    12387.109 
   27800    291.69833    261.12809    -3037.603   -2603.7238     240.6343    12389.791 
   27850    285.32549    260.95222   -3031.7406   -2607.3405    371.44902    12392.493 
   27900    299.35677     261.4923   -3049.7434   -2604.4729   -165.82446    12395.223 
   27950    287.15877    261.05608   -3035.2027   -2608.0758    172.86761    12397.786 
   28000    285.04668    260.92644   -3030.8814   -2606.8961    229.16904    12400.306 
   28050    287.28597    260.97933   -3032.6444   -2605.3283    110.70688     12402.82 
   28100    282.21328    260.80514   -3026.8379    -2607.067    232.12334     12405.29 
   28150    283.66306    260.84939    -3028.313   -2606.3857    7.1737024    12407.744 
   28200    303.39331    261.57005    -3052.335   -2601.0605   -728.71363    12410.026 
   28250    283.50933    260.88533   -3029.5111   -2607.8125   -51.418975    12411.868 
   28300    292.46605    261.23626   -3041.2086   -2606.1875   -333.32051    12413.486 
   28350    300.45265    261.57217   -3052.4055    -2605.505   -692.07791    12414.791 
   28400    295.53376    261.39492   -3046.4973   -2606.9133   -477.66172    12415.602 
   28450    284.36838    260.85983   -3028.6612   -2605.6847   -50.915021    12416.048 
   28500    289.84873    261.12283   -3037.4276   -2606.2996   -261.22258    12416.303 
   28550    286.36997    261.10277    -3036.759   -2610.8054   -138.39577    12416.327 
   28600    285.24596    261.02153   -3034.0509   -2609.7692   -65.801891    12416.171 
   28650    287.11674    261.11314   -3037.1047   -2610.0403   -138.89613    12415.856 
   28700    278.08865    260.84574   -3028.1915   -2614.5557    143.79847    12415.377 
   28750    274.09752    260.57674   -3019.2245   -2611.5252    339.66229     12414.88 
   28800    298.01699    261.51266   -3050.4221   -2607.1444   -467.01045    12414.409 
   28850    291.21481    261.16614   -3038.8712   -2605.7112   -163.66565    12413.636 
   28900    289.58777     261.1337   -3037.7901   -2607.0502   -80.032412     12412.63 
   28950    290.31333    260.99636   -3033.2121    -2601.393   -68.037455    12411.476 
   29000    302.33538    261.50065   -3050.0216   -2600.3206   -477.01216    12410.135 
   29050    280.73085    260.66603   -3022.2011   -2604.6352    286.60492    12408.499 
   29100    286.06862     260.7721   -3025.7366   -2600.2312    168.85787    12406.875 
   29150    303.50898    261.41845   -3047.2817   -2595.8351   -407.69144    12405.223 
   29200    283.35594    260.63163   -3021.0542   -2599.5837    349.32541    12403.315 
   29250    285.08783    260.67243   -3022.4142   -2598.3677    403.30212    12401.452 
   29300    299.15168    261.23051   -3041.0171   -2596.0516    -44.40532    12399.682 
   29350    280.62126    260.47072   -3015.6908   -2598.2879    645.90329    12397.847 
   29400    293.16391     260.9138   -3030.4601    -2594.401    304.80037    12396.206 
   29450    301.52076    261.17462    -3039.154   -2590.6647     151.2131    12394.657 
   29500    285.35169      260.539   -3017.9665   -2593.5275    772.19521    12393.127 
   29550    296.40856    260.91519   -3030.5062    -2589.621    400.28522    12391.868 
   29600    295.94908    260.86917   -3028.9724   -2588.7706    416.42283    12390.765 
   29650    298.31126    260.85039   -3028.3464    -2584.631    531.84924    12389.784 
   29700    297.15995    260.73848   -3024.6161   -2582.6132    733.56031    12389.003 
   29750     294.4112    260.61305   -3020.4349   -2582.5206    870.61409    12388.527 
   29800    308.31719    261.11763   -3037.2544   -2578.6559    409.63971    12388.385 
   29850    303.53442    260.86726   -3028.9086   -2577.4242      586.428    12388.387 
   29900    307.20332     260.8896   -3029.6534   -2572.7118    524.37215    12388.569 
   29950    300.83795    260.68368   -3022.7894   -2575.3158    757.89449    12388.955 
   30000    300.13713    260.67284   -3022.4279   -2575.9967    777.26812    12389.645 
   30050    308.41847    265.89862   -3029.9539   -2571.2048    430.56871    12390.628 
   30100    305.23135    265.76144   -3025.3812   -2571.3727    575.63051     12391.77 
   30150    303.66936    265.68407   -3022.8022   -2571.1171    740.21649    12393.132 
   30200    304.14537    265.65075   -3021.6916   -2569.2984    815.09452    12394.794 
   30250    296.21387    265.33552    -3011.184   -2570.5883     1152.861    12396.824 
   30300    298.75678    265.37664   -3012.5545   -2568.1764    1164.8201    12399.369 
   30350    305.79448    265.56885   -3018.9615   -2564.1154    987.00352    12402.439 
   30400    295.58694     265.2246   -3007.4868   -2567.8236    1251.4701    12405.985 
   30450    317.67725    266.04233   -3034.7443   -2562.2235    468.48274    12410.028 
   30500    310.23978    265.71578   -3023.8593   -2562.4011      636.913    12414.284 
   30550    316.78972    266.00888   -3033.6293   -2562.4286    297.37294     12418.73 
   30600    314.83622    265.84316   -3028.1052   -2559.8102    316.54896    12423.218 
   30650    301.93895    265.24577   -3008.1922   -2559.0809    733.82402    12427.788 
   30700    298.46534     265.0933   -3003.1101   -2559.1655    797.00275    12432.613 
   30750    296.52892    265.01835   -3000.6117   -2559.5474    818.09663    12437.758 
   30800    302.71714     265.2116   -3007.0535   -2556.7847    557.76477    12443.228 
   30850    308.23678    265.40251    -3013.417   -2554.9381    290.48773    12448.887 
   30900    309.62943    265.50653   -3016.8843    -2556.334    164.93221    12454.583 
   30950    299.29165    265.13795   -3004.5982   -2559.4246    441.59281    12460.262 
   31000    298.50263    265.09188   -3003.0625   -2559.0625     432.0137    12466.044 
   31050    292.91381    264.87586    -2995.862   -2560.1749    595.95501    12471.951 
   31100    286.60119    264.48947   -2982.9824   -2556.6848    846.45075    12478.078 
   31150    293.28177    264.73084    -2991.028   -2554.7936    520.85318    12484.532 
   31200    296.86318    264.88709   -2996.2364   -2554.6749     220.7629    12491.165 
   31250    304.17671     265.2366   -3007.8865   -2555.4467   -120.19982    12497.771 
   31300    296.13716    264.91441   -2997.1471   -2556.6655    151.40916    12504.202 
   31350    293.59135    264.79379   -2993.1262   -2556.4313    167.84919    12510.575 
   31400    292.59654    264.72479   -2990.8263   -2555.6111     153.3604    12516.917 
   31450    290.50147    264.61152   -2987.0505   -2554.9516    165.53147    12523.218 
   31500    298.32615    264.93804   -2997.9346    -2554.197    -260.0807    12529.459 
   31550    308.83538    265.31773   -3010.5911   -2551.2219   -680.39897    12535.418 
   31600    299.74838     264.8747   -2995.8234   -2549.9704   -296.58846    12540.899 
   31650    285.34681    264.28451   -2976.1504   -2551.7187    201.78877     12546.09 
   31700    295.00193    264.72943   -2990.9809   -2552.1879   -193.87506    12551.205 
   31750    290.49217    264.48135   -2982.7115   -2550.6264    -24.74606    12556.129 
   31800    298.64664    264.87595   -2995.8649   -2551.6507   -335.75285     12560.88 
   31850    290.08019    264.54038   -2984.6794   -2553.2071   -62.022799     12565.35 
   31900    290.47623    264.54536   -2984.8452   -2552.7838   -125.82851    12569.633 
   31950    296.01055    264.72618   -2990.8725   -2550.5793    -369.1696    12573.713 
   32000    295.24055    264.52763   -2984.2544   -2545.1065    -332.4854    12577.473 
   32050     301.6197    259.69191   -2989.7304   -2541.0939    -513.9893    12580.893 
   32100    293.40544    259.42663   -2980.8878   -2544.4694    -252.5823    12583.907 
   32150    304.79738    259.82331   -2994.1104   -2540.7474   -612.32381    12586.592 
   32200     300.1038    259.54305   -2984.7684   -2538.3868   -426.20498    12588.829 
   32250    294.12138    259.33653   -2977.8845   -2540.4012   -150.70576    12590.689 
   32300    288.41337     259.1083   -2970.2765   -2541.2835    67.810201    12592.328 
   32350    300.13519    259.52263   -2984.0878   -2537.6595   -272.03522    12593.846 
   32400    304.96414     259.7839   -2992.7967   -2539.1856   -498.52907    12595.081 
   32450    304.74843     259.6898   -2989.6601   -2536.3699   -440.15365    12595.901 
   32500    294.93119    259.23358   -2974.4528    -2535.765   -62.345986    12596.368 
   32550    299.08761    259.43832   -2981.2773   -2536.4072   -183.20684    12596.643 
   32600      303.134    259.53875   -2984.6251   -2533.7363   -334.50389    12596.696 
   32650    311.35768     259.8164   -2993.8801   -2530.7591   -617.12997      12596.4 
   32700    301.46198    259.45887   -2981.9624   -2533.5606   -369.08348    12595.666 
   32750    312.26802    259.82979   -2994.3264   -2529.8514   -631.21239    12594.556 
   32800    302.99377    259.52114   -2984.0379   -2533.3577   -176.12799    12593.002 
   32850    297.38017     259.3388   -2977.9598   -2535.6294    143.21117    12591.209 
   32900    294.46889    259.23594   -2974.5313   -2536.5311    269.36639    12589.384 
   32950    309.61536    259.78419   -2992.8063    -2532.277   -267.60293    12587.567 
   33000    310.50134    259.73441   -2991.1469   -2529.2997   -326.87814    12585.502 
   33050    302.88468    259.42466   -2980.8221   -2530.3041   -53.004417    12583.144 
   33100    308.56259    259.52489   -2984.1629   -2525.1994   -178.54569    12580.621 
   33150    296.26304     259.0458   -2968.1935   -2527.5247    254.70415    12577.914 
   33200    305.14971    259.39412    -2979.804   -2525.9169    34.419227    12575.196 
   33250    305.76461    259.40876   -2980.2919   -2525.4902    7.7130424    12572.414 
   33300    314.95376     259.7536   -2991.7866   -2523.3168   -247.91374    12569.495 
   33350    311.05413    259.51724   -2983.9079   -2521.2384   -6.0655823    12566.356 
   33400    316.34448    259.65107    -2988.369   -2517.8306   -86.779611    12563.087 
   33450    314.86884    259.63704   -2987.9012   -2519.5577   -31.736209    12559.666 
   33500    318.02713    259.64813    -2988.271   -2515.2298    16.778515      12556.1 
   33550     323.3801     259.7274   -2990.9134     -2509.91   -53.693166    12552.439 
   33600    339.23283    260.33552   -3011.1839   -2506.6008   -482.84749    12548.604 
   33650     323.0704    259.77554    -2992.518   -2511.9753    82.907111    12544.434 
   33700    308.24124    259.18335   -2972.7782   -2514.2928      631.873    12540.196 
   33750    328.20335    259.94442   -2998.1472   -2509.9696   -24.421849    12536.125 
   33800    319.04084    259.51038   -2983.6795   -2509.1304    361.43032    12532.001 
   33850    322.87567    259.55519   -2985.1731     -2504.92    481.06883    12527.934 
   33900    309.14259    259.00148   -2966.7161   -2506.8899    1133.6798    12524.066 
   33950    308.89574    258.93138   -2964.3795   -2504.9205    1272.7151    12520.699 
   34000    321.99762    259.51222   -2983.7406   -2504.7936    860.75811    12517.901 
   34050     320.2955    259.40792   -2980.2639   -2503.8487    958.64598    12515.511 
   34100    323.51431    259.50248   -2983.4159   -2502.2129     842.0053    12513.528 
   34150    323.77699    259.57948   -2985.9827   -2504.3889    753.07957    12511.921 
   34200     335.7363    260.03541   -3001.1803    -2501.798    401.40678    12510.608 
   34250    327.08788    259.65606   -2988.5354    -2502.017    703.96203    12509.426 
   34300    324.51682    259.50491   -2983.4971   -2500.8029     847.2718    12508.481 
   34350    315.36023    259.13505   -2971.1684    -2502.094    1111.2918    12507.929 
   34400    334.34882     259.8421   -2994.7367   -2497.4181    474.49974    12507.814 
   34450    329.17075    259.52756   -2984.2521   -2494.6356    726.14392    12507.886 
   34500    317.99734    259.20447   -2973.4823   -2500.4853    1108.1122    12508.249 
   34550    315.01326    259.09537   -2969.8455   -2501.2872    1226.8902    12509.089 
   34600    307.67114    258.73903   -2957.9676   -2500.3301    1474.0558    12510.505 
   34650    312.03375     258.9227     -2964.09   -2499.9634    1352.1377    12512.598 
   34700    331.06081    259.62445   -2987.4818   -2495.0539    737.08762    12515.293 
   34750    330.17072    259.65539    -2988.513   -2497.4091    649.56363    12518.295 
   34800    322.26755    259.46587   -2982.1958   -2502.8473    741.17267    12521.529 
   34850    328.72087    259.69466   -2989.8219   -2500.8745     491.8129    12525.029 
   34900    330.34607    259.71714   -2990.5715   -2499.2067    476.63077    12528.677 
   34950    323.98545    259.37123   -2979.0411   -2497.1373    638.11837    12532.468 
   35000     329.1378    259.67765   -2989.2551   -2499.6876    270.63842     12536.45 
   35050    322.56589    264.53458    -2984.486   -2504.6937    346.67344     12540.48 
   35100    305.77034    263.95794   -2965.2646   -2510.4544    855.87824    12544.609 
   35150    303.83267    263.93811   -2964.6037   -2512.6757    840.75061    12549.079 
   35200    317.87919    264.55268   -2985.0892    -2512.268    237.93414    12553.863 
   35250    306.97912    264.20082   -2973.3606   -2516.7525    461.30143     12558.71 
   35300    304.43378    264.06614   -2968.8714   -2516.0492    494.33542    12563.681 
   35350    312.25837    264.50487   -2983.4957    -2519.035    100.37513    12568.774 
   35400    301.04049    264.19832   -2973.2774   -2525.5025    406.26819    12573.835 
   35450    292.16981    263.92505   -2964.1682   -2529.5877    631.01899    12579.008 
   35500    304.82873    264.47054   -2982.3514   -2528.9418    71.365478    12584.378 
   35550    299.01709    264.29198   -2976.3993    -2531.634    153.84549    12589.707 
   35600    301.61158    264.35383    -2978.461   -2529.8366    46.838314    12594.981 
   35650     298.5244    264.22928   -2974.3093   -2530.2769     124.2341     12600.16 
   35700    290.82705    264.02992    -2967.664   -2535.0808    269.44775    12605.302 
   35750    297.63867    264.37721   -2979.2404   -2536.5254   -114.91642    12610.442 
   35800    298.35605    264.47009   -2982.3365   -2538.5544    -199.2243    12615.408 
   35850    292.71148    264.24683   -2974.8942   -2539.5081   -9.6816364    12620.166 
   35900    299.31371    264.58915   -2986.3051   -2541.0987   -289.32437    12624.763 
   35950    304.11939    264.79258    -2993.086   -2540.7315   -501.23481    12629.065 
   36000    279.77703    263.93003   -2964.3342   -2548.1871    221.42255    12633.022 
   36050    290.21004    264.29573   -2976.5243   -2544.8588   -131.07467    12636.925 
   36100    288.10643    264.17342   -2972.4474   -2543.9109   -250.45956     12640.67 
   36150    305.14862    264.84132   -2994.7105   -2540.8251   -999.07163    12644.098 
   36200    296.49712    264.45101   -2981.7003   -2540.6833   -772.12492    12646.874 
   36250    275.93808    263.71375   -2957.1249   -2546.6879   -140.58859    12649.105 
   36300    291.02749    264.24638   -2974.8794    -2541.998    -639.0957    12651.065 
   36350    284.55635    264.12716   -2970.9053   -2547.6493   -520.90981    12652.581 
   36400    285.74775    264.18773   -2972.9243   -2547.8962   -640.57495    12653.668 
   36450    305.87964    264.95631   -2998.5438    -2543.571   -1408.5144    12654.222 
   36500    294.50264    264.52907   -2984.3023    -2546.252    -1040.618    12653.913 
   36550    295.63163    264.57372   -2985.7906   -2546.0609   -969.07616    12652.859 
   36600    285.73101    264.24275   -2974.7585   -2549.7553   -584.46209    12651.156 
   36650     279.4059     264.0063   -2966.8765   -2551.2814   -295.75838    12649.001 
   36700      291.802     264.4353   -2981.1766   -2547.1433   -752.01709    12646.531 
   36750    295.99151    264.58015   -2986.0049     -2545.74   -984.66126    12643.534 
   36800    289.04211    264.36094   -2978.6979   -2548.7696   -770.85964    12639.891 
   36850    292.13072    264.48756   -2982.9186   -2548.3963   -865.46981    12635.681 
   36900     294.4976    264.50984   -2983.6615   -2545.6186   -872.59245     12630.88 
   36950    297.37514    264.58687   -2986.2289   -2543.9059   -832.92583     12625.47 
   37000    288.95306    264.29704   -2976.5681   -2546.7724   -437.02598    12619.506 
   37050    293.49488    259.44478   -2981.4927   -2544.9413   -414.86463    12613.163 
   37100    283.06282    259.15463   -2971.8208   -2550.7863   -59.129279    12606.515 
   37150    297.59972    259.62802   -2987.6007   -2544.9437   -498.62739     12599.67 
   37200     307.1799    259.96983   -2998.9945   -2542.0877   -767.43532     12592.44 
   37250    300.08543    259.69533   -2989.8442   -2543.4899   -363.49515    12584.705 
   37300    300.34367    259.74752   -2991.5839   -2544.8455   -220.57498    12576.641 
   37350    298.31826    259.72255   -2990.7516   -2547.0258   -136.56469    12568.353 
   37400    300.39335    259.75649   -2991.8831   -2545.0708   -101.25916    12559.888 
   37450    295.21054    259.55262   -2985.0872   -2545.9839    147.47638     12551.29 
   37500    304.28498    259.82348   -2994.1162   -2541.5153   -77.309803    12542.646 
   37550    296.43307    259.61782   -2987.2606   -2546.3389    158.24728    12533.905 
   37600    304.40224    259.82473   -2994.1578   -2541.3825    -3.962366    12525.144 
   37650    314.00608    260.28175   -3009.3916   -2542.3314   -230.45346    12516.276 
   37700    312.41881      260.213   -3007.0999   -2542.4006   -77.213689      12507.2 
   37750    305.58393    259.94218   -2998.0727   -2543.5397     265.2419    12498.006 
   37800    302.83716    259.90839   -2996.9463    -2546.499    439.67904    12488.861 
   37850    312.97738    260.23111   -3007.7038   -2542.1737     195.3274    12479.863 
   37900     308.4668    260.09121   -3003.0404   -2544.2194    424.12915    12470.933 
   37950    314.71244    260.19882   -3006.6272   -2538.5163    398.78476    12462.139 
   38000    317.62056    260.37742   -3012.5806   -2540.1441    388.65504    12453.482 
   38050    320.07509    265.51943   -3017.3142   -2541.2267    390.70508    12444.954 
   38100    320.82521     265.5151   -3017.1701   -2539.9669    454.42571    12436.591 
   38150    309.17075    265.14253   -3004.7511    -2544.883    969.83555    12428.441 
   38200    308.78479    265.16065   -3005.3551   -2546.0611    1187.7858    12420.734 
   38250    315.50718    265.36281   -3012.0937   -2542.8006    1055.7011    12413.613 
   38300    322.03335    265.72049   -3024.0164   -2545.0162    828.77522    12407.002 
   38350    307.88476    265.16754   -3005.5846   -2547.6294     1269.672    12400.823 
   38400    310.81698    265.25185   -3008.3951   -2546.0784    1137.6167    12395.241 
   38450    309.35951     265.2538   -3008.4599   -2548.3111    1191.9186    12390.231 
   38500    321.37163    265.58707   -3019.5691   -2541.5532     868.0939    12385.771 
   38550    315.65448    265.57814   -3019.2713   -2549.7592    987.53236    12381.732 
   38600    310.27545    265.47361   -3015.7868   -2554.2756    1174.6474    12378.137 
   38650    311.34564    265.40693   -3013.5644   -2550.4613    1247.9003    12375.099 
   38700    316.08346    265.64146    -3021.382   -2551.2318    1116.1342    12372.649 
   38750    306.39005    265.26852   -3008.9505   -2553.2186    1443.2115    12370.751 
   38800    305.82477    265.26259   -3008.7531   -2553.8619    1519.8546     12369.56 
   38850    317.36582    265.84466   -3028.1555   -2556.0979    1076.2063    12369.082 
   38900    305.87218    265.47045   -3015.6816   -2560.7199    1367.4035    12369.146 
   38950    297.50986    265.17015   -3005.6717   -2563.1483    1572.5696    12369.869 
   39000    302.24161    265.44335   -3014.7782   -2565.2168    1293.1878     12371.33 
   39050    311.13241    265.79673   -3026.5576   -2563.7718     863.9821      12373.4 
   39100    287.73125    265.02145   -3000.7149   -2572.7364     1503.686     12375.91 
   39150    302.68925    265.71615   -3023.8716   -2573.6443    829.46104     12379.06 
   39200    317.49839    266.29139   -3043.0462   -2570.7914    204.79648    12382.571 
   39250    298.04021    265.66766   -3022.2552    -2578.943    811.51346    12386.142 
   39300    301.80187    265.88288   -3029.4295   -2580.5221    639.92047    12390.008 
   39350    304.29022    266.07338   -3035.7792   -2583.1705    405.85412    12394.119 
   39400      292.371    265.62988    -3020.996   -2586.1163     738.9134    12398.386 
   39450    290.08234    265.64836   -3021.6118   -2590.1364    725.54787    12402.935 
   39500    299.99047    265.99809   -3033.2698   -2587.0567    307.76302    12407.743 
   39550    294.71279    265.79077   -3026.3591   -2587.9961     375.8635     12412.65 
   39600    303.16643    266.11865   -3037.2884   -2586.3513    72.494768    12417.618 
   39650    295.60431    265.90092   -3030.0305   -2590.3415    302.43221    12422.544 
   39700    284.01738    265.49213   -3016.4042   -2593.9499    656.27905    12427.546 
   39750    293.29854    265.81618    -3027.206   -2590.9467    190.41804    12432.754 
   39800    297.44237    265.95341   -3031.7803   -2589.3573   -142.14312     12437.95 
   39850    285.79404    265.50285   -3016.7615   -2591.6646    168.76536    12442.988 
   39900     292.9696    265.88716   -3029.5719   -2593.8018   -160.20133     12447.96 
   39950    287.64157    265.69886   -3023.2955   -2595.4504   -138.89089    12452.767 
   40000    291.15875    265.76653   -3025.5512   -2592.4746   -339.64289    12457.351 
   40050    277.15928    265.12807   -3004.2692   -2592.0157    167.72572     12461.66 
   40100    285.14583     265.5313     -3017.71   -2593.5772   -131.85452    12465.902 
   40150    293.22552    265.95474   -3031.8247    -2595.674   -475.04635    12469.955 
   40200    271.37767    265.08811    -3002.937   -2599.2833    234.85115    12473.693 
   40250    283.52165    265.53943   -3017.9809   -2596.2639    -249.4803    12477.389 
   40300    283.34835     265.5439   -3018.1299   -2596.6707   -340.03339    12480.864 
   40350    288.37221    265.68051   -3022.6836   -2593.7518   -490.64018    12484.025 
   40400    299.14495    266.11678    -3037.226   -2592.2705   -856.99866    12486.784 
   40450    290.48847    265.77306   -3025.7688   -2593.6892   -516.95654     12488.99 
   40500    283.72437    265.47205   -3015.7349   -2593.7164   -255.27482    12490.785 
   40550    285.80093    265.54183    -3018.061   -2592.9538   -350.99147    12492.309 
   40600     289.8963    265.65313    -3021.771   -2590.5722   -464.52448    12493.529 
   40650    283.04617    265.26367   -3008.7889   -2587.7791   -121.24708    12494.408 
   40700    284.50613    265.42091   -3014.0304   -2590.8491   -163.64868    12495.086 
   40750    273.32044    264.84017   -2994.6724    -2588.129    209.32795    12495.608 
   40800    286.65231     265.3527   -3011.7567   -2585.3832   -238.96186    12496.084 
   40850    285.64651    265.34778   -3011.5926   -2586.7151   -221.12622    12496.365 
   40900    281.62022    265.11144   -3003.7147    -2584.826   -66.069696    12496.423 
   40950    279.54692    264.99333   -2999.7777   -2583.9728    14.272873    12496.341 
   41000    287.01013    265.31882   -3010.6274   -2583.7216   -223.55292    12496.144 
   41050    298.83925    260.69579   -3023.1929   -2578.6922   -497.64487      12495.7 
   41100    290.35118    260.35234   -3011.7445   -2579.8691   -101.98845    12494.898 
   41150     294.4516     260.3904   -3013.0133   -2575.0389   -185.39198    12493.887 
   41200     291.3471    260.33028   -3011.0093   -2577.6525   -151.40723    12492.674 
   41250    301.42584    260.63063   -3021.0211    -2572.673   -381.64203    12491.225 
   41300    295.87978    260.44082   -3014.6941   -2574.5954   -93.584109    12489.479 
   41350    294.06457    260.32193   -3010.7308   -2573.3321    119.71242    12487.546 
   41400    276.02023    259.56885   -2985.6284   -2575.0692    806.59757    12485.615 
   41450    295.71945    260.29653   -3009.8842   -2570.0239    222.44957     12483.94 
   41500    297.55182    260.33293   -3011.0977   -2568.5119    178.77146     12482.32 
   41550    298.12132     260.3687   -3012.2899   -2568.8571    165.74635     12480.69 
   41600    298.17802    260.28762   -3009.5875   -2566.0703    214.29584    12479.048 
   41650    297.86911    260.21762    -3007.254   -2564.1962    233.62463    12477.414 
   41700    297.06976    260.24854   -3008.2847   -2566.4159    308.15006    12475.778 
   41750    298.06638    260.14563   -3004.8544   -2561.5032    364.95137    12474.203 
   41800    305.15799    260.37819   -3012.6064    -2558.707    228.03261    12472.709 
   41850    295.09118    260.00849   -3000.2828   -2561.3571    648.56769    12471.263 
   41900    295.13622     260.0041   -3000.1367    -2561.144    682.33295    12470.037 
   41950    315.68212    260.80615   -3026.8717   -2557.3185   -134.40774    12469.039 
   42000    325.02553    261.00446   -3033.4821   -2550.0313   -393.52345    12467.873 
   42050    288.03816    259.53681   -2984.5603   -2556.1254    983.10518    12466.461 
   42100     312.6716    260.46237   -3015.4123    -2550.337    269.00208    12465.359 
   42150    312.26848    260.46859   -3015.6196   -2551.1439    285.54173    12464.348 
   42200    308.63913    260.36956   -3012.3187   -2553.2414    451.95378    12463.357 
   42250    319.62457    260.76451   -3025.4837   -2550.0664    96.535532    12462.469 
   42300    306.32948    260.26918   -3008.9725   -2553.3306    493.66989    12461.566 
   42350    310.89423    260.37763   -3012.5877   -2550.1561    461.93556    12460.778 
   42400    313.51316    260.50305   -3016.7683   -2550.4412    414.26961    12460.168 
   42450    317.25171    260.73022   -3024.3407   -2552.4528    242.44908    12459.664 
   42500    309.35259    260.43471   -3014.4903   -2554.3518    599.97437    12459.194 
   42550      299.108    260.07781   -3002.5935    -2557.693    988.50935    12458.959 
   42600    312.17259    260.59614   -3019.8713   -2555.5383    450.73457    12459.111 
   42650    312.66611    260.49166   -3016.3885   -2551.3214    399.28004    12459.432 
   42700    289.41264    259.53305   -2984.4351   -2553.9557    1187.2667    12459.899 
   42750    305.91365    260.32411   -3010.8036   -2555.7802     575.3327    12460.808 
   42800    304.60496    260.32817   -3010.9391   -2557.8623    570.03701    12461.982 
   42850    305.11908    260.33686   -3011.2286   -2557.3871    612.78472     12463.34 
   42900    278.83569    259.26644    -2975.548    -2560.801    1465.0625    12464.992 
   42950    301.26237    260.10705   -3003.5683   -2555.4634    716.82657    12467.243 
   43000     292.2635    259.68514   -2989.5045   -2554.7847    947.75144    12469.856 
   43050       299.72    265.02266   -3000.7555   -2554.9447    596.89812    12472.826 
   43100    295.98971    264.89519   -2996.5064   -2556.2441    632.21452    12476.059 
   43150    302.69419    265.17435   -3005.8116   -2555.5769    360.38064    12479.524 
   43200    311.86121    265.48406   -3016.1354   -2552.2655    36.667828    12483.072 
   43250    307.63865    265.35417   -3011.8057   -2554.2165    206.00969    12486.546 
   43300    297.78976    264.92154   -2997.3845   -2554.4448    588.58882     12490.04 
   43350    297.22112    265.02438   -3000.8125   -2558.7186     481.8045    12493.735 
   43400    304.97638    265.22198   -3007.3994   -2553.7702    190.62265    12497.583 
   43450    293.61696    264.83619   -2994.5397   -2557.8067    519.45977    12501.461 
   43500    297.53918    264.99268   -2999.7561   -2557.1891    231.87676    12505.493 
   43550    295.88164    264.96343    -2998.781   -2558.6795    238.60587    12509.576 
   43600    283.99067    264.43237   -2981.0791   -2558.6645    754.20101    12513.722 
   43650    292.11209      264.667   -2988.8999   -2554.4053    435.64529     12518.14 
   43700    296.46972    264.83024   -2994.3414   -2553.3652    105.61714    12522.694 
   43750     291.0304    264.66598   -2988.8659   -2555.9803    246.52571    12527.221 
   43800     277.8802    264.19707   -2973.2355   -2559.9098    607.64426    12531.796 
   43850    295.82923    264.97986   -2999.3288   -2559.3053   -111.93413    12536.534 
   43900    302.23347    265.19116   -3006.3718   -2556.8225   -386.51885    12541.137 
   43950    296.94874    264.89442   -2996.4805   -2554.7918   -238.61743    12545.422 
   44000    305.57145    265.34669   -3011.5562   -2557.0418   -635.27633     12549.41 
[...]
   89400    277.19724    251.34727   -3044.9089    -2632.599    516.41941    12354.491 
   89450    282.33257     251.4799   -3049.3301   -2629.3818    332.15577    12351.337 
   89500    289.64763    251.78645   -3059.5483   -2628.7194    10.605231    12348.189 
   89550     303.4848    252.20718   -3073.5728   -2622.1622   -413.07924    12344.878 
   89600    303.11268    252.24573   -3074.8576   -2624.0005   -404.36488    12341.209 
   89650    291.49548     251.7486   -3058.2865   -2624.7091    13.346248    12337.168 
   89700    285.10702    251.51981   -3050.6604   -2626.5853    226.27946    12332.943 
   89750    294.42155    251.90828   -3063.6094   -2625.6797   -108.34067    12328.654 
   89800    293.88317    251.94302   -3064.7673   -2627.6383   -143.72869    12324.156 
   89850    290.68992     251.9403   -3064.6765   -2632.2973    -3.824023    12319.406 
   89900    288.53298    251.73756   -3057.9188   -2628.7479    209.28715     12314.49 
   89950    285.60665    251.63784   -3054.5946   -2629.7764    282.17624    12309.512 
   90000    299.56484    252.16884   -3072.2946   -2626.7146    -208.6964    12304.485 
   90050       297.75    247.19358   -3073.1194   -2630.2389   -167.27474    12299.208 
   90100    293.85193    247.01462   -3067.1541   -2630.0716    129.86668    12293.652 
   90150    290.65687     246.9228   -3064.0934   -2631.7633    305.47804    12287.974 
   90200     303.3511    247.41013   -3080.3376   -2629.1259   -141.38533    12282.246 
   90250     306.8013    247.50816   -3083.6052   -2627.2615   -231.16954    12276.264 
   90300     305.5647    247.41078   -3080.3594   -2625.8551   -100.35118    12269.968 
   90350    305.37327    247.44021   -3081.3405   -2627.1209   -13.688831    12263.408 
   90400    298.73672    247.22437   -3074.1455   -2629.7973    261.20243    12256.659 
   90450    304.00242    247.47853   -3082.6175    -2630.437     173.8674    12249.832 
   90500    296.83369    247.21999   -3073.9995   -2632.4819    509.81324    12242.934 
   90550    302.21921     247.5454   -3084.8465   -2635.3184    324.43123    12236.088 
   90600    297.21691    247.36362   -3078.7873   -2636.6997    496.83237    12229.219 
   90650    297.95017    247.32423   -3077.4745   -2634.2962    628.23069    12222.417 
   90700    307.05307    247.63716   -3087.9054   -2631.1872    482.19217    12215.767 
   90750    308.93081    247.85194   -3095.0645   -2635.5533    471.66788    12209.189 
   90800    310.26088     247.8791   -3095.9699   -2634.4804    529.50791    12202.679 
   90850    299.09372    247.45941   -3081.9803    -2637.101     987.0785    12196.293 
   90900    296.79805    247.47262   -3082.4206    -2640.956     1115.368    12190.242 
   90950     299.4958    247.49748   -3083.2493    -2637.772    1113.6706    12184.608 
   91000    299.08809    247.42459   -3080.8198   -2635.9489    1136.8496    12179.389 
   91050    302.80626    247.58438   -3086.1458   -2635.7445     993.7816    12174.597 
   91100    303.39248    247.66706   -3088.9021   -2637.6288    998.72012    12170.169 
   91150    302.05936    247.62615   -3087.5383   -2638.2479    1025.2478    12166.102 
   91200    304.26825      247.687   -3089.5668   -2636.9909    911.98184    12162.413 
   91250    309.32706    247.84942   -3094.9806   -2634.8801     837.9926    12159.029 
   91300     290.0106    247.18792   -3072.9308    -2641.562    1540.1875    12155.971 
   91350     301.5555    247.67937   -3089.3122   -2640.7713     1081.265    12153.503 
   91400    315.39689    248.25868   -3108.6227   -2639.4937    515.96207    12151.441 
   91450    303.74256    247.98678   -3099.5593   -2647.7652    903.62105    12149.518 
   91500    291.29455     247.4538   -3081.7932   -2648.5147    1388.6644    12147.924 
   91550    307.94855    248.19442   -3106.4808   -2648.4306    823.63341    12146.865 
   91600    306.26444    248.18199   -3106.0663   -2650.5212     929.2848     12146.13 
   91650    301.29526     248.0121   -3100.4034   -2652.2496    1133.6133    12145.737 
   91700    302.16828    248.07547   -3102.5156   -2653.0631    996.44598    12145.796 
   91750     299.0853    248.01195   -3100.3983   -2655.5316    1011.2665    12146.249 
   91800    284.09443    247.57115   -3085.7049    -2663.136    1355.4823    12147.121 
   91850    307.56392    248.55261   -3118.4202   -2660.9422    425.64896    12148.502 
   91900     305.9185     248.5159   -3117.1967   -2662.1661    333.16198    12150.028 
   91950    300.81684      248.379   -3112.6332   -2665.1909    477.80948    12151.591 
   92000    287.22665    248.00116   -3100.0387   -2672.8108    885.59678    12153.283 
   92050    292.79354    243.22616   -3107.5386   -2672.0304     698.6967    12155.273 
   92100    302.12232     243.6183     -3120.61    -2671.226    346.90152    12157.486 
   92150     281.0075    242.80733   -3093.5778   -2675.6004    1017.2255    12159.795 
   92200    286.85449    243.01576   -3100.5254   -2673.8511    740.80512    12162.461 
   92250    299.05037    243.55471   -3118.4904   -2673.6756    212.57688    12165.375 
   92300    295.88871     243.4567   -3115.2233   -2675.1113    231.25873    12168.282 
   92350    287.48069     243.2007     -3106.69   -2679.0842    373.84869    12171.188 
   92400    290.66064    243.35656   -3111.8852   -2679.5496     229.3765     12174.13 
   92450    283.26401    243.18917   -3106.3055   -2684.9718    397.20331    12177.067 
   92500    284.66555    243.29212   -3109.7374    -2686.319    200.24647    12180.066 
   92550    286.52311     243.2859     -3109.53   -2683.3486     10.46842    12183.041 
   92600    290.34415    243.37115   -3112.3718   -2680.5069   -152.60076    12185.873 
   92650    282.66823     243.1045   -3103.4834   -2683.0358    78.235559     12188.51 
   92700    283.87387    243.27063    -3109.021   -2686.7801    24.992652    12191.009 
   92750    285.52235    243.35479   -3111.8262   -2687.1334   -120.28612    12193.381 
   92800    280.26475    243.17414   -3105.8047   -2688.9322   -56.115544    12195.565 
   92850    286.69555    243.27528   -3109.1759    -2682.738   -201.66027     12197.54 
   92900     293.8635    243.53908   -3117.9692   -2680.8695   -463.82288    12199.242 
   92950    295.88268    243.60325   -3120.1084   -2680.0054   -537.34332    12200.548 
   93000    275.04782    242.81208    -3093.736   -2684.6232    214.77144    12201.445 
   93050    267.94691    247.64022   -3088.0073   -2689.4566    523.76559    12202.272 
   93100    271.00453    247.72672   -3090.8907   -2687.7919    422.83819    12203.243 
   93150    287.78594    248.36616   -3112.2052   -2684.1454   -267.85911    12204.272 
   93200    284.54331    248.22002   -3107.3339   -2684.0973   -202.21619    12205.057 
   93250    285.58306    248.27765   -3109.2551   -2684.4719   -134.51736    12205.585 
   93300    290.00561    248.29163   -3109.7211   -2678.3597   -186.53974    12205.906 
   93350    289.26364    248.27844   -3109.2814   -2679.0237   -135.35575    12205.975 
   93400    284.79428    248.07923   -3102.6409    -2679.031    109.35069    12205.816 
   93450    296.46565    248.53275   -3117.7585   -2676.7883   -214.38474    12205.534 
   93500     288.9902     248.1985   -3106.6165   -2676.7655    46.798807    12205.018 
   93550    273.01001     247.6419   -3088.0633   -2681.9816    580.35289    12204.373 
   93600    283.35735    247.90255   -3096.7516    -2675.279    400.54296    12203.844 
   93650    284.79224    247.94552    -3098.184   -2674.5771    398.36129    12203.394 
   93700     287.8341    248.05337    -3101.779   -2673.6476      326.611    12203.005 
   93750    284.38438    247.77007   -3092.3356   -2669.3354    477.49492    12202.658 
   93800    282.69955    247.72823    -3090.941   -2670.4468    534.41765    12202.411 
   93850    277.25372    247.53045   -3084.3483   -2671.9544     714.2472    12202.332 
   93900     299.0506    248.24275   -3108.0915   -2663.2764    80.614524     12202.44 
   93950    289.63043    247.78325   -3092.7749   -2661.9716    454.60638    12202.499 
   94000     287.7679    247.74681   -3091.5602   -2663.5272    522.15415    12202.632 
   94050     297.8315    248.08615   -3102.8718     -2659.87     190.9465    12202.889 
   94100     294.3048    247.96057   -3098.6857   -2660.9297    381.14609    12203.121 
   94150    281.67223    247.41246   -3080.4152   -2661.4491    891.62653    12203.427 
   94200    285.88204    247.53256   -3084.4186   -2659.1908    788.09836    12204.048 
   94250    294.04935    247.75837   -3091.9456   -2654.5695     537.8007    12204.952 
   94300    300.09705    247.99778    -3099.926   -2653.5544    325.65041    12205.995 
   94350    289.14373    247.54303   -3084.7677   -2654.6883    662.64492    12207.099 
   94400    302.03826    247.96536   -3098.8452   -2649.5862    338.93763    12208.377 
   94450    312.13091    248.19933   -3106.6442   -2642.3731    146.81132    12209.697 
   94500    298.81694    247.72512   -3090.8374   -2646.3698    564.75701    12210.979 
   94550     296.6766    247.57202   -3085.7339   -2644.4499    638.95335      12212.4 
   94600    291.62006    247.35701   -3078.5671   -2644.8044    797.45297    12214.046 
   94650    296.56596    247.42029   -3080.6764    -2639.557    703.56826    12215.971 
   94700    281.18042    246.95053   -3065.0178   -2646.7832    1074.4778    12218.175 
   94750    294.92218     247.5081   -3083.6034    -2644.929    587.87685    12220.776 
   94800    290.70444    247.29784   -3076.5948    -2644.194    813.30808    12223.615 
   94850    290.39784    247.27628   -3075.8759   -2643.9311    788.46211    12226.757 
   94900    311.01194    247.97268   -3099.0895   -2636.4828   -13.726576    12230.166 
   94950    311.25285     247.9279   -3097.5967   -2634.6317   -33.241627    12233.467 
   95000    299.55632    247.56611   -3085.5369   -2639.9696    453.00012    12236.626 
   95050    292.26066    252.21739   -3073.9129   -2639.1973    736.67288     12239.92 
   95100    299.24553    252.41614   -3080.5381   -2635.4331    501.78195    12243.455 
   95150    297.55667    252.39666   -3079.8885   -2637.2955    438.33554    12247.155 
   95200    309.71832    252.92478   -3097.4926   -2636.8101   -88.780604    12250.964 
   95250     295.8658    252.33849   -3077.9498   -2637.8718    397.81491    12254.665 
   95300    284.85387    251.99999   -3066.6663   -2642.9677    735.67223    12258.444 
   95350    291.70027    252.17146   -3072.3819   -2638.4999    453.91295      12262.5 
   95400    287.20619     252.0226   -3067.4199   -2640.2225    530.16652    12266.727 
   95450    294.54358     252.2134   -3073.7799   -2635.6686    284.04468    12271.119 
   95500    296.84851    252.17454   -3072.4848   -2630.9451    181.92262    12275.575 
   95550    299.42011    252.32708   -3077.5692   -2632.2045    120.76862    12280.004 
   95600    290.63581    251.99889   -3066.6297   -2634.3309    395.39056    12284.419 
   95650    292.35105    251.96925   -3065.6416   -2630.7915    320.83367    12288.916 
   95700    298.14972    252.17042   -3072.3475   -2628.8723    58.491337    12293.475 
   95750    287.49857    251.77811   -3059.2705   -2631.6381    330.04098    12298.022 
   95800    289.64532    251.80117    -3060.039   -2629.2135    267.12956    12302.611 
   95850    284.09659    251.58247    -3052.749   -2630.1768    411.21043    12307.255 
   95900    301.01859    252.14715   -3071.5715   -2623.8292   -199.40629    12311.974 
   95950    313.62959    252.56857   -3085.6191   -2619.1189   -650.16906    12316.479 
   96000    290.95946    251.72076   -3057.3587   -2624.5786    40.987812     12320.58 
   96050    300.74218    247.06423   -3068.8078   -2621.4766   -269.42292    12324.507 
   96100    292.85665     246.8445   -3061.4835   -2625.8814    39.059572    12328.185 
   96150    289.95985     246.6634   -3055.4466   -2624.1533    236.35055    12331.753 
   96200    304.71319    247.17471   -3072.4902   -2619.2524   -192.95152    12335.277 
   96250     292.3477    246.70295    -3056.765   -2621.9199    226.16522    12338.598 
   96300    282.85489    246.34565    -3044.855   -2624.1298    574.55571    12341.901 
   96350    287.61116    246.50134   -3050.0447   -2622.2449    428.00765    12345.381 
   96400    302.59051    246.85846   -3061.9488   -2611.8683   -64.347376     12348.97 
   96450    301.54884    246.76518   -3058.8394   -2610.3083   -25.312489    12352.409 
   96500     305.1746    246.87591   -3062.5302   -2608.6061   -110.66906    12355.668 
   96550    306.93165    246.87171   -3062.3903   -2605.8528   -176.36703     12358.73 
   96600    309.69161    247.09088   -3069.6962   -2609.0534   -310.33579    12361.551 
   96650    307.51383    247.03196    -3067.732   -2610.3285   -289.42847     12364.06 
   96700    307.60281    246.98746   -3066.2485   -2608.7127   -329.71026    12366.251 
   96750    307.18091    246.97296   -3065.7652   -2608.8569   -319.55174    12368.114 
   96800    297.61459    246.52609   -3050.8698   -2608.1907    86.897887    12369.665 
   96850    294.49728    246.46292   -3048.7638   -2610.7215    153.94013    12371.096 
   96900    309.29231     246.9215   -3064.0499    -2604.001   -344.28234    12372.432 
   96950    299.85697    246.67731   -3055.9102   -2609.8957   -122.16926    12373.453 
   97000    295.74955    246.51934   -3050.6445   -2610.7395   -31.621908    12374.243 
   97050    297.90166    251.52421    -3050.807   -2607.7008   -89.945316    12374.856 
   97100    296.60192    251.40373    -3046.791   -2605.6181    12.374903    12375.277 
   97150    295.97434    251.37886    -3045.962   -2605.7225    28.841208    12375.558 
   97200     305.0202    251.73484    -3057.828   -2604.1336   -272.09337    12375.684 
   97250    295.18165    251.24254   -3041.4178   -2602.3575    66.614552    12375.564 
   97300    305.56443    251.68401   -3056.1336   -2601.6297   -301.18816    12375.273 
   97350     311.3894    251.86509   -3062.1696   -2599.0015   -437.27078    12374.677 
   97400     292.0268    251.06994   -3035.6645   -2601.2968    327.13747    12373.728 
   97450    300.98296    251.43637   -3047.8791   -2600.1898    90.851874    12372.741 
   97500    318.33444    252.02968   -3067.6561   -2594.1577   -434.67965    12371.653 
   97550    312.01209    251.75875    -3058.625   -2594.5306   -135.69195    12370.202 
   97600    296.07633    251.09945   -3036.6483   -2596.2572    495.16157    12368.531 
   97650    288.29176    250.82376   -3027.4588   -2598.6467    823.83056    12366.972 
   97700    304.87793    251.48407    -3049.469   -2595.9862     262.1046    12365.667 
   97750    322.19947      252.106   -3070.1999   -2590.9526   -396.28074    12364.344 
   97800      310.415     251.6609   -3055.3633   -2593.6445   -80.380977    12362.701 
   97850    300.06245    251.28404   -3042.8014   -2596.4813    364.88898    12360.842 
   97900    289.08506    250.88416   -3029.4719   -2599.4798      843.325    12359.035 
   97950    298.29031    251.20018   -3040.0059   -2596.3217    593.27065    12357.521 
   98000    303.24625    251.33245   -3044.4149   -2593.3591    386.32688    12356.185 
   98050    309.63997    251.58185   -3052.7282   -2592.1622     130.3712    12354.893 
   98100    305.86476    251.40018   -3046.6727    -2591.722    305.02374    12353.536 
   98150    305.19593    251.33141   -3044.3803   -2590.4245     399.4333     12352.18 
   98200    309.86577    251.46155   -3048.7183   -2587.8165     281.0066     12350.89 
   98250    318.29395    251.76901   -3058.9669   -2585.5288    98.642896     12349.58 
   98300    307.83799    251.35201    -3045.067   -2587.1814    465.97828    12348.211 
   98350    316.62452    251.66744   -3055.5813   -2584.6263    200.49408    12346.904 
   98400    317.24794    251.75422   -3058.4739   -2586.5917    203.40447    12345.557 
   98450    318.87304     251.7032   -3056.7732   -2582.4737    221.40714    12344.176 
   98500    310.40717    251.44301   -3048.1003   -2586.3931    485.41543     12342.76 
   98550     305.1914    251.29441   -3043.1469   -2589.1978    706.66144    12341.448 
   98600    310.98315    251.44341   -3048.1138   -2585.5499    508.92473    12340.353 
   98650    319.76145    251.73033   -3057.6777   -2582.0568    195.13414     12339.36 
   98700    307.83005    251.29305   -3043.1015   -2585.2277    627.72349    12338.361 
   98750    297.35227    250.84914   -3028.3047   -2586.0157    1072.7987    12337.544 
   98800    305.21781    251.31558   -3043.8527   -2589.8643    673.29971     12337.13 
   98850    313.15389    251.58148   -3052.7159   -2586.9232    291.74851    12336.941 
   98900    309.94473    251.42191   -3047.3969   -2586.3776    470.08536    12336.781 
   98950     302.8358    251.09563   -3036.5211   -2586.0758    878.18304    12336.743 
   99000    308.66747    251.32223   -3044.0744   -2584.9549    702.68585    12337.016 
   99050    317.62169    256.72379   -3057.4597   -2585.0215    357.24023    12337.517 
   99100    307.51486    256.43413   -3047.8044   -2590.3993    594.84266    12338.124 
   99150    321.48009    257.00155   -3066.7183    -2588.541    25.624943    12338.869 
   99200    293.45481    256.01804   -3033.9348    -2597.443    839.18695    12339.596 
   99250    294.03655    256.13493    -3037.831    -2600.474    770.35468    12340.588 
   99300    302.25371    256.44892   -3048.2973   -2598.7178    454.54908    12341.881 
   99350    296.49758    256.26451   -3042.1502   -2601.1325     572.1133     12343.34 
   99400    304.23119    256.51272   -3050.4239   -2597.9031    283.57726    12344.961 
   99450    304.35754    256.58063   -3052.6877   -2599.9789    246.46272    12346.633 
   99500    308.52183    256.73018   -3057.6726   -2598.7698    186.44505    12348.301 
   99550    295.98762    256.27218   -3042.4059   -2602.1468    559.36236    12349.995 
   99600    301.64283    256.47686   -3049.2287   -2600.5578    224.81142    12351.833 
   99650    312.38605     257.0404   -3068.0133   -2603.3627   -286.80585    12353.658 
   99700    301.00794     256.6474   -3054.9132   -2607.1867    103.54882    12355.243 
   99750    280.20191    255.87349   -3029.1163   -2612.3372    761.21087    12356.791 
   99800    290.48885     256.3446   -3044.8201   -2612.7399    296.27604     12358.58 
   99850    289.72586    256.23557   -3041.1858   -2610.2406    240.90028    12360.446 
   99900    292.19573    256.33807   -3044.6022   -2609.9832    23.823068    12362.324 
   99950    305.60839    256.96495   -3065.4985   -2610.9292   -623.15963    12364.061 
  100000    301.93791    256.83417   -3061.1391   -2612.0294   -495.95345    12365.372 
Loop time of 27.0847 on 1 procs for 100000 steps with 500 atoms

Performance: 318.999 ns/day, 0.075 hours/ns, 3692.123 timesteps/s
99.1% CPU use with 1 MPI tasks x 1 OpenMP threads

MPI task timing breakdown:
Section |  min time  |  avg time  |  max time  |%varavg| %total
---------------------------------------------------------------
Pair    | 21.739     | 21.739     | 21.739     |   0.0 | 80.26
Bond    | 0.0067518  | 0.0067518  | 0.0067518  |   0.0 |  0.02
Neigh   | 0.54694    | 0.54694    | 0.54694    |   0.0 |  2.02
Comm    | 0.77301    | 0.77301    | 0.77301    |   0.0 |  2.85
Output  | 0.018281   | 0.018281   | 0.018281   |   0.0 |  0.07
Modify  | 2.7301     | 2.7301     | 2.7301     |   0.0 | 10.08
Other   |            | 1.271      |            |       |  4.69

Nlocal:    500 ave 500 max 500 min
Histogram: 1 0 0 0 0 0 0 0 0 0
Nghost:    1587 ave 1587 max 1587 min
Histogram: 1 0 0 0 0 0 0 0 0 0
Neighs:    14388 ave 14388 max 14388 min
Histogram: 1 0 0 0 0 0 0 0 0 0

Total # of neighbors = 14388
Ave neighs/atom = 28.776
Ave special neighs/atom = 0
Neighbor list builds = 666
Dangerous builds = 0

write_data      ${walker}/final_restart_file
write_data      12/final_restart_file

quit
