LAMMPS (19 May 2017)
Processor partition = 12
  using 1 OpenMP thread(s) per MPI task
# gREM variables
variable        lambda world 1000 1005 1010 1015 1020 1025 1030 1035 1040 1045 1050 1055 1060 1065 1070 1075
variable        walker world 0 1 2 3 4 5 6 7 8 9 10 11 12 13 14 15
variable        replica world 4 9 1 7 0 12 3 5 8 13 14 6 15 11 2 10

variable        T0 equal 300.0
variable        press equal 0.0

units           real
atom_style      full
pair_style      lj/cut 5.0

# LJ particles
read_data       ${walker}/restart_file
read_data       12/restart_file
  orthogonal box = (0.807761 0.807761 0.807761) to (24.1922 24.1922 24.1922)
  1 by 1 by 1 MPI processor grid
  reading atoms ...
  500 atoms
  reading velocities ...
  500 velocities
  0 = max # of 1-2 neighbors
  0 = max # of 1-3 neighbors
  0 = max # of 1-4 neighbors
  1 = max # of special neighbors

#dump            dump all xyz 1000 ${walker}/dump.xyz

fix             fxnpt all npt temp ${T0} ${T0} 1000.0 iso ${press} ${press} 10000.0
fix             fxnpt all npt temp 300 ${T0} 1000.0 iso ${press} ${press} 10000.0
fix             fxnpt all npt temp 300 300 1000.0 iso ${press} ${press} 10000.0
fix             fxnpt all npt temp 300 300 1000.0 iso 0 ${press} 10000.0
fix             fxnpt all npt temp 300 300 1000.0 iso 0 0 10000.0
fix             fxgREM all grem ${lambda} -.03 -30000 fxnpt
fix             fxgREM all grem 1060 -.03 -30000 fxnpt
thermo_modify   press fxgREM_press

thermo          50
thermo_style    custom step temp f_fxgREM pe etotal press vol
WARNING: New thermo_style command, previous thermo_modify settings will be lost (../output.cpp:705)
timestep        1.0

temper/grem     100000 1000 ${lambda} fxgREM fxnpt 10294 98392 ${walker}
temper/grem     100000 1000 1060 fxgREM fxnpt 10294 98392 ${walker}
temper/grem     100000 1000 1060 fxgREM fxnpt 10294 98392 12
Neighbor list info ...
  update every 1 steps, delay 10 steps, check yes
  max neighbors/atom: 2000, page size: 100000
  master list distance cutoff = 7
  ghost atom cutoff = 7
  binsize = 3.5, bins = 7 7 7
  1 neighbor lists, perpetual/occasional/extra = 1 0 0
  (1) pair lj/cut, perpetual
      attributes: half, newton on
      pair build: half/bin/newton
      stencil: half/bin/3d/newton
      bin: standard
Per MPI rank memory allocation (min/avg/max) = 5.719 | 5.719 | 5.719 Mbytes
Step Temp f_fxgREM PotEng TotEng Press Volume 
       0    312.33277    247.39053   -2913.0176   -2448.4462    99.035035    12787.423 
      50    312.32616    247.45053   -2915.0177   -2450.4562    51.759562    12787.372 
     100    332.73003    248.07635   -2935.8785   -2440.9678    -522.7347    12787.146 
     150    332.30221    248.02021   -2934.0069   -2439.7325   -570.47569    12786.461 
     200    334.40472    248.03673   -2934.5575   -2437.1558   -655.93723    12785.235 
     250    329.58376    247.93517   -2931.1722   -2440.9414   -479.56369    12783.463 
     300    323.80941    247.82832   -2927.6106   -2445.9687   -290.88724    12781.226 
     350    320.81392    247.80451    -2926.817   -2449.6306    -249.9663    12778.629 
     400     332.6967    248.23697   -2941.2323   -2446.3711   -628.18995    12775.668 
     450    335.17182    248.35416   -2945.1388   -2446.5961   -664.51452    12772.175 
     500     328.6627    248.18286   -2939.4286   -2450.5678   -389.06991    12768.115 
     550     323.4237    248.06166   -2935.3886   -2454.3204   -200.17289    12763.638 
     600    321.16226    248.03154   -2934.3845     -2456.68   -207.51307    12758.857 
     650     317.4814    247.99019   -2933.0063   -2460.7768   -125.44213    12753.777 
     700     321.5323    248.22052   -2940.6842   -2462.4292   -279.92241    12748.439 
     750     323.7171    248.32554   -2944.1847   -2462.6801   -401.05116    12742.778 
     800    338.01404    248.88426   -2962.8087   -2460.0384   -905.92403    12736.664 
     850    324.43464    248.52075   -2950.6917   -2468.1198   -558.89262    12729.895 
     900    324.28636    248.59666   -2953.2219   -2470.8705   -529.41603    12722.592 
     950    321.37441    248.54448   -2951.4827   -2473.4626   -373.02889    12714.813 
    1000    320.88806    248.51104   -2950.3678   -2473.0712   -383.75566    12706.641 
    1050     324.0556      253.843   -2961.4332    -2479.425    -617.2177    12698.061 
    1100    309.27325    253.33844   -2944.6148   -2484.5943    -125.8564    12689.019 
    1150    309.67754      253.465   -2948.8334   -2488.2115    9.9812756    12679.738 
    1200    308.90408    253.55407   -2951.8022   -2492.3308    184.56244    12670.323 
    1250    313.01907    253.73565    -2957.855   -2492.2629    73.304028    12660.859 
    1300     319.4604    254.03605   -2967.8683   -2492.6952   -186.88843    12651.286 
    1350    326.18708    254.31219    -2977.073   -2491.8944   -295.53079    12641.456 
    1400    318.88724    254.04137   -2968.0456    -2493.725    34.089881    12631.351 
    1450    331.25572     254.6415     -2988.05   -2495.3322   -406.11344    12621.061 
    1500    334.19155    254.79513   -2993.1711   -2496.0865   -553.20358    12610.406 
    1550    320.37146    254.32953   -2977.6509   -2501.1226   -78.517769    12599.349 
    1600    312.33656    254.12409   -2970.8031   -2506.2262    331.61594     12588.11 
    1650    312.99538    254.22792   -2974.2641   -2508.7072    422.89863    12576.914 
    1700     321.4261    254.65508   -2988.5028   -2510.4058    113.55143    12565.817 
    1750    318.38811    254.63959   -2987.9864   -2514.4083    275.35218    12554.665 
    1800    308.66712    254.18051   -2972.6835   -2513.5646    735.61224    12543.583 
    1850    308.05782     254.2249   -2974.1634   -2515.9508    808.32827    12532.775 
    1900    311.81251    254.44709   -2981.5698   -2517.7724    689.19943    12522.296 
    1950    320.63527    254.86234   -2995.4113   -2518.4906    404.45649    12512.083 
    2000    307.59888    254.48347   -2982.7822   -2525.2522    901.70139     12502.04 
    2050    310.13239    254.63519   -2987.8398   -2526.5413    865.74586     12492.35 
    2100    303.77086      254.431   -2981.0332   -2529.1971     1094.041    12483.074 
    2150     324.0184    255.20738   -3006.9128     -2524.96    494.78954    12474.251 
    2200     317.4934     254.9531   -2998.4368   -2526.1894    708.85425    12465.628 
    2250    320.32428    255.20067    -3006.689   -2530.2309    558.23737    12457.257 
    2300    328.22027    255.48688   -3016.2293   -2528.0265    331.41769    12449.094 
    2350    327.57572    255.47328   -3015.7761   -2528.5321     474.5084    12441.024 
    2400    316.96337    255.13308   -3004.4358   -2532.9768    893.36378    12433.113 
    2450    315.74045    255.24759   -3008.2531   -2538.6131    976.37126    12425.561 
    2500    310.95316     255.1081   -3003.6033    -2541.084    1169.2511    12418.451 
    2550    321.73131     255.4621   -3015.4033   -2536.8524    811.59496    12411.833 
    2600    312.82262    255.23545   -3007.8483   -2542.5483    1033.1507    12405.591 
    2650    305.01252    254.95812   -2998.6039   -2544.9209    1371.2449      12399.8 
    2700    298.61173    254.76517   -2992.1722   -2548.0099    1691.0649    12394.655 
    2750    322.52531    255.75957   -3025.3191   -2545.5872    992.83153    12390.256 
    2800    305.93249    255.14203   -3004.7345   -2549.6831    1574.9831    12386.376 
    2850    293.80418    254.80451   -2993.4837   -2556.4723     1819.702    12383.226 
    2900    311.95765     255.4602   -3015.3401   -2551.3267     1120.593    12380.905 
    2950    318.27087    255.79621   -3026.5404   -2553.1366    851.87227    12379.103 
    3000    315.39519    255.81904   -3027.3014    -2558.175    885.18521    12377.656 
    3050     306.8625     255.5951   -3019.8366   -2563.4019    1181.1825    12376.582 
    3100    303.29387    255.45489   -3015.1631   -2564.0365    1338.7833    12376.027 
    3150    304.61959    255.54302   -3018.1006   -2565.0021    1179.5416    12376.071 
    3200    305.85524    255.70922   -3023.6405    -2568.704    976.83391    12376.641 
    3250    298.05377    255.42032   -3014.0108   -2570.6784    1108.3647    12377.643 
    3300    305.36001    255.71143   -3023.7142   -2569.5143    745.30391    12379.084 
    3350    309.59335    255.83868   -3027.9561   -2567.4594    535.81608    12380.816 
    3400    299.71379    255.51943   -3017.3144   -2571.5128    868.05107    12382.727 
    3450     299.0102    255.47954   -3015.9846   -2571.2296    873.77138    12384.973 
    3500    305.92172    255.83105   -3027.7018   -2572.6664    500.16912    12387.548 
    3550    299.70612    255.59138   -3019.7127   -2573.9226    572.65087    12390.295 
    3600    310.02723    255.92903   -3030.9678   -2569.8258     231.8378     12393.19 
    3650     304.0833    255.81794   -3027.2646   -2574.9637    397.56718    12396.096 
    3700    285.64887    255.27392   -3009.1308   -2584.2497    877.73105    12399.105 
    3750    306.94443     256.1115     -3037.05   -2580.4934    38.815043     12402.38 
    3800    300.30447    255.94959   -3031.6529   -2584.9727    127.12802    12405.605 
    3850     299.5513    255.85281   -3028.4269   -2582.8671    180.54194    12408.747 
    3900    290.58169     255.5682   -3018.9401   -2586.7219     336.2088     12411.88 
    3950    318.91227    256.66796   -3055.5985   -2581.2407   -644.78631    12414.965 
    4000    305.26914    256.17832   -3039.2774   -2585.2127   -201.47536     12417.64 
    4050    303.71684    251.15809   -3038.6029   -2586.8471   -78.384054    12420.024 
    4100    304.10551    251.24592   -3041.5305   -2589.1966   -174.92841    12422.205 
    4150    305.61697    251.30532   -3043.5108   -2588.9287    -283.7339    12424.121 
    4200    279.19725    250.42752   -3014.2505   -2598.9658    556.35084    12425.781 
    4250    290.02626    250.81249   -3027.0831    -2595.691    121.49124    12427.527 
    4300      292.475    250.93072   -3031.0241   -2595.9897   -177.04794    12429.214 
    4350    299.96764    251.31099   -3043.6996   -2597.5205   -495.09131    12430.636 
    4400    288.88218    250.90195    -3030.065   -2600.3746   -61.660541    12431.673 
    4450    288.75827    250.94299    -3031.433   -2601.9269   -56.739315    12432.502 
    4500    297.44629    251.37123   -3045.7077   -2603.2789    -454.4863    12433.124 
    4550    294.67303    251.22021   -3040.6736   -2602.3698   -361.94123    12433.373 
    4600    294.04948    251.10557   -3036.8522   -2599.4759   -242.62621    12433.275 
    4650    296.72727     251.1639   -3038.7967   -2597.4374   -373.75239    12432.887 
    4700    310.36364    251.79104   -3059.7013   -2598.0589   -925.11293    12432.102 
    4750    291.43919    251.07931   -3035.9769   -2602.4832   -295.66691     12430.71 
    4800    289.69717    250.99177   -3033.0589   -2602.1563   -158.52049    12428.996 
    4850    296.84456    251.31017   -3043.6724   -2602.1386   -389.99947    12427.046 
    4900    292.81383     251.1196   -3037.3198   -2601.7814   -256.21473    12424.755 
    4950    292.88788    251.27464   -3042.4881   -2606.8396   -266.11632    12422.159 
    5000    275.00793     250.5596   -3018.6532   -2609.5997    256.64068    12419.326 
    5050    304.49872    256.59742   -3053.2474   -2600.3286   -724.25057    12416.397 
    5100    295.48385    256.31903   -3043.9676   -2604.4578   -465.98133    12413.015 
    5150    302.72694    256.69573   -3056.5243   -2606.2409   -649.35794    12409.211 
    5200    302.75507    256.66818   -3055.6059   -2605.2807   -547.61861    12404.943 
    5250    293.68408    256.26929   -3042.3098    -2605.477   -87.094193    12400.266 
    5300    282.02096    255.89622   -3029.8739   -2610.3891    341.39417    12395.423 
    5350    285.70401    255.99382   -3033.1272   -2608.1642    262.25576    12390.622 
    5400    290.04878    256.20138    -3040.046   -2608.6204    144.97535    12385.846 
    5450    298.95355    256.53823   -3051.2745   -2606.6037   -124.90604    12381.012 
    5500    288.66086     256.1424   -3038.0799   -2608.7188    145.00642    12376.021 
    5550    300.34118    256.59494   -3053.1645   -2606.4298   -213.17715    12370.932 
    5600    293.68725    256.32018   -3044.0061   -2607.1686    141.42813    12365.654 
    5650    288.45582    256.12138   -3037.3793   -2608.3231    547.62305    12360.326 
    5700    288.69905    256.13668   -3037.8893   -2608.4714    582.43443    12355.159 
    5750    286.20614     256.1085   -3036.9499   -2611.2399    587.56064    12350.202 
    5800    285.66488    256.09275    -3036.425   -2611.5202    567.57132    12345.449 
    5850    303.64775     256.6667   -3055.5567   -2603.9037    16.204505    12340.854 
    5900      307.645    256.86914   -3062.3047   -2604.7061   -79.633582    12336.179 
    5950    303.42845    256.69533   -3056.5111   -2605.1843     166.2468    12331.349 
    6000    301.53882     256.6222   -3054.0734   -2605.5572    364.78223    12326.478 
    6050    300.85509    256.65778   -3055.2593   -2607.7601    524.86368    12321.683 
    6100    292.17827    256.31249   -3043.7496   -2609.1566    918.61893    12317.086 
    6150     294.7737    256.37928   -3045.9759   -2607.5224    883.44143    12312.858 
    6200     298.3513    256.41863   -3047.2876   -2603.5126    812.32504    12309.005 
    6250    304.61721    256.66605    -3055.535     -2602.44    561.01549    12305.472 
    6300    315.00903    257.09126   -3069.7086   -2601.1565    235.85572    12302.106 
    6350    309.32231    256.80892   -3060.2972   -2600.2037    549.40601    12298.787 
    6400    305.13124    256.63615   -3054.5382   -2600.6786    769.11299    12295.632 
    6450    302.25176    256.52991   -3050.9969   -2601.4203    951.97956    12292.763 
    6500    305.58455    256.71567    -3057.189   -2602.6552    827.34983    12290.279 
    6550    306.22741    256.66863   -3055.6208   -2600.1308    831.03888    12288.142 
    6600    297.60765    256.32376   -3044.1254   -2601.4566    1128.4175    12286.356 
    6650    310.90666    256.81475   -3060.4916   -2598.0415    734.37342    12285.013 
    6700    303.37808    256.40861   -3046.9536   -2595.7017    1144.2465    12283.991 
    6750    295.22679    256.22042   -3040.6806   -2601.5531    1412.7178    12283.457 
    6800    314.43624    256.84936   -3061.6453   -2593.9452    781.07624    12283.514 
    6850    312.07529    256.77016   -3059.0053    -2594.817    819.89188    12283.905 
    6900    311.33683    256.71936    -3057.312    -2594.222    876.92826    12284.608 
    6950    307.39207    256.57541   -3052.5137   -2595.2913    1032.0873    12285.671 
    7000    306.78743    256.55578   -3051.8595   -2595.5364    1038.4258    12287.154 
    7050    303.67194    251.49888   -3049.9626   -2598.2736    1060.3486    12289.062 
    7100    306.70116    251.58145   -3052.7149   -2596.5202    958.47638    12291.401 
    7150    316.90943    251.88972   -3062.9906   -2591.6118    648.05636    12294.119 
    7200    315.47118    251.88578   -3062.8593   -2593.6198    594.27669    12297.057 
    7250    300.01792    251.24201   -3041.4002   -2595.1463    1101.1767    12300.188 
    7300    291.49964    250.94627   -3031.5423   -2597.9586    1451.7633    12303.758 
    7350    304.80196    251.43284   -3047.7612   -2594.3914    938.34807    12307.949 
    7400    315.99845     251.7328   -3057.7599   -2587.7361    490.39751    12312.523 
    7450    302.82962    251.27749    -3042.583   -2592.1469    921.25156    12317.261 
    7500     304.1876    251.37456   -3045.8188   -2593.3628    837.46535    12322.314 
    7550    312.06167    251.58937   -3052.9789   -2588.8108    572.14161    12327.662 
    7600    307.98771    251.30742   -3043.5807   -2585.4723    819.22208    12333.199 
    7650    309.01688    251.47514   -3049.1714   -2589.5322    691.11011    12339.012 
    7700    317.30872    251.80464   -3060.1546   -2588.1819    249.03294    12345.049 
    7750    304.80981    251.32727   -3044.2423   -2590.8608    649.73885    12351.118 
    7800    300.77997    251.09428   -3036.4759   -2589.0885    803.18265    12357.388 
    7850    307.68261    251.36466   -3045.4888   -2587.8343    462.34461    12363.906 
    7900    298.28225    251.11781   -3037.2603    -2593.588    606.42551     12370.55 
    7950    300.93612    251.17956   -3039.3186   -2591.6989    402.37356    12377.361 
    8000    301.46727    251.15808   -3038.6027    -2590.193    298.98403    12384.262 
    8050    293.18357    255.85293   -3028.4311   -2592.3427    483.43215    12391.201 
    8100    283.30635    255.51906    -3017.302   -2595.9053     719.8898    12398.279 
    8150     289.5816    255.64668   -3021.5559   -2590.8253    449.48654    12405.598 
    8200    295.25773    255.84738   -3028.2461   -2589.0726    109.15065    12413.026 
    8250    298.39522    255.88682   -3029.5606   -2585.7204    13.861963    12420.378 
    8300    289.77477    255.49464    -3016.488     -2585.47    251.51069    12427.628 
    8350    293.17684    255.68389   -3022.7964   -2586.7181   -8.7973559    12434.844 
    8400    285.47881    255.38242   -3012.7472   -2588.1191    83.667157    12441.939 
    8450     292.4702    255.73889   -3024.6298   -2589.6025    -281.3215    12448.903 
    8500    287.55438    255.45499   -3015.1662   -2587.4509   -56.610252    12455.624 
    8550    287.97183      255.403   -3013.4335   -2585.0972   -10.375013    12462.166 
    8600    299.59047    255.96719   -3032.2397   -2586.6216   -517.15724    12468.522 
    8650    298.79128    256.02496   -3034.1652   -2589.7358   -570.65914    12474.473 
    8700      285.894    255.46837   -3015.6123   -2590.3666   -71.519407    12479.988 
    8750    290.81287    255.55183   -3018.3943   -2585.8322   -161.16101     12485.28 
    8800    284.06365    255.24814   -3008.2714   -2585.7483    15.923651    12490.359 
    8850    287.92329    255.30523   -3010.1743   -2581.9103   -139.22041    12495.285 
    8900    292.48871    255.49067   -3016.3556   -2581.3008   -329.04578    12499.991 
    8950    292.67556     255.4996   -3016.6532   -2581.3205   -403.60268    12504.367 
    9000    286.62986    255.14277    -3004.759   -2578.4188    -214.0886    12508.391 
    9050    283.30099     260.1327   -3004.4235   -2583.0347   -141.00681    12512.143 
    9100    286.09978    260.14269   -3004.7564   -2579.2047   -165.22351    12515.694 
    9150    292.32146    260.34378   -3011.4594   -2576.6534   -291.20952    12519.038 
    9200    302.40544    260.64315   -3021.4385   -2571.6333   -573.44335    12522.091 
    9250    308.61583    260.73946   -3024.6487    -2565.606   -681.27785     12524.69 
    9300    289.87597    260.04112   -3001.3705    -2570.202   -38.010495    12526.822 
    9350    288.82116    259.85505   -2995.1682   -2565.5687    49.939989    12528.773 
    9400    295.16399    260.06313   -3002.1043   -2563.0702   -111.73103    12530.615 
    9450    293.76087    260.02548   -3000.8492   -2563.9022   -40.748487    12532.291 
    9500    301.53525    260.29871   -3009.9571   -2561.4463   -258.63907    12533.797 
    9550    295.86211    259.97742   -2999.2474   -2559.1749   -122.57059    12535.064 
    9600     302.1038    260.18511   -3006.1704   -2556.8138   -323.34794    12536.108 
    9650    295.36218      259.896   -2996.5333   -2557.2044   -9.3766386    12536.883 
    9700    302.80321    260.14878   -3004.9594   -2554.5626   -123.28581      12537.5 
    9750    301.61484    260.03355   -3001.1183   -2552.4891   -23.455638    12537.931 
    9800    290.69847    259.59309   -2986.4364   -2554.0445     367.7352    12538.237 
    9850    282.48329    259.24366   -2974.7888   -2554.6163    661.81902     12538.63 
    9900     297.7019    259.72665   -2990.8884   -2548.0794    157.83291    12539.226 
    9950    302.27563    259.84967    -2994.989   -2545.3769   -97.728311    12539.821 
   10000    307.87156    259.97067   -2999.0223   -2541.0867   -325.62527    12540.226 
   10050    303.13661    259.72749   -2990.9162   -2540.0235   -190.88063    12540.339 
   10100    309.17328    259.95877   -2998.6258    -2538.754    -304.5086    12540.195 
   10150    304.53884    259.78885   -2992.9618   -2539.9833   -95.717595    12539.771 
   10200    308.66346    259.97622   -2999.2074   -2540.0939   -228.19482    12539.148 
   10250    310.49726    259.99101   -2999.7002   -2537.8591   -149.34105    12538.272 
   10300    296.90478    259.47248   -2982.4161   -2540.7927    399.58381    12537.218 
   10350    308.06409    259.82048   -2994.0161   -2535.7941    114.90509    12536.211 
   10400    304.15441    259.65532   -2988.5107   -2536.1041    234.74056     12535.18 
   10450    311.97519    259.93763   -2997.9209   -2533.8814   -10.522891    12534.126 
   10500    309.26487    259.79591   -2993.1968   -2533.1888    74.275092    12532.972 
   10550    308.65732     259.6986   -2989.9535   -2530.8491    213.80688    12531.728 
   10600    299.83723    259.32585   -2977.5284   -2531.5433    642.47783    12530.498 
   10650    304.28295    259.51303   -2983.7676   -2531.1698    537.43368    12529.488 
   10700    310.62124    259.82598   -2994.1993   -2532.1738    240.56963    12528.657 
   10750     314.7262     259.9446   -2998.1532   -2530.0218    95.668924     12527.83 
   10800    310.62906    259.85971   -2995.3237   -2533.2865     263.6256    12526.941 
   10850    301.60635     259.4447   -2981.4901   -2532.8735    566.59575    12526.092 
   10900    315.06089    259.88293   -2996.0976   -2527.4685    133.82963    12525.399 
   10950    315.32746    259.92099   -2997.3665   -2528.3408    192.69345    12524.695 
   11000     310.3912    259.72951   -2990.9836   -2529.3002    421.75511    12523.971 
   11050    315.74389     254.9059   -2996.8633   -2527.2182    189.43945    12523.341 
   11100    316.65446    255.01185    -3000.395   -2529.3955    56.238838    12522.692 
   11150    308.70129    254.89502   -2996.5008    -2537.331    288.18557    12521.953 
   11200    308.93024    254.85328   -2995.1093    -2535.599    360.23988    12521.234 
   11250    301.89354    254.63623   -2987.8742   -2538.8304    570.18884    12520.598 
   11300    309.90962    254.89958   -2996.6526   -2535.6855    342.83671    12520.123 
   11350    314.71726    254.99261   -2999.7536   -2531.6356     213.4697    12519.715 
   11400    307.94789    254.71276   -2990.4254   -2532.3763    462.11707    12519.287 
   11450    299.03702    254.41954   -2980.6512   -2535.8563    720.16618    12518.999 
   11500    306.98599    254.78526    -2992.842   -2536.2236    433.81285    12518.952 
   11550    302.04555    254.64022   -2988.0074   -2538.7375    537.11377    12519.039 
   11600    309.66596    254.94822   -2998.2741   -2537.6695    240.45903    12519.276 
   11650    308.57506    255.01565   -3000.5218   -2541.5398    218.55707    12519.512 
   11700    287.42663    254.30764   -2976.9213   -2549.3959    788.24502    12519.777 
   11750    298.16338    254.77387   -2992.4623   -2548.9669    252.32584    12520.298 
   11800    311.54726    255.25212    -3008.404   -2545.0011   -246.00968    12520.812 
   11850    292.05839    254.54401   -2984.8002   -2550.3855    430.87629    12521.124 
   11900    307.54567    255.09451   -3003.1504   -2545.6995   -14.398998    12521.465 
   11950    312.90806    255.30405   -3010.1351   -2544.7081   -231.53327    12521.668 
   12000     282.7473     254.3057   -2976.8567   -2556.2915    674.42198    12521.675 
   12050    293.04374    259.66024   -2988.6745   -2552.7942    304.89146    12521.857 
   12100    297.92441    259.87712   -2995.9039   -2552.7639   -7.0889641    12522.102 
   12150    306.97024    260.34272    -3011.424   -2554.8291    -294.1891    12522.214 
   12200    293.98431    259.74464   -2991.4879   -2554.2085    266.91388    12522.108 
   12250    295.09029    259.67863   -2989.2876   -2550.3631    253.83473    12521.993 
   12300    307.52984    260.22554   -3007.5181   -2550.0908   -269.97047    12521.866 
   12350    305.96281    260.16631   -3005.5438   -2550.4473   -265.12648    12521.491 
   12400     301.6765    260.13021   -3004.3404   -2555.6194   -87.925046    12520.826 
   12450    286.34421    259.50829   -2983.6098   -2557.6945       429.12    12520.029 
   12500    306.98562    260.34837   -3011.6123   -2554.9944   -261.76739    12519.276 
   12550    295.81884    259.91658   -2997.2194   -2557.2112    88.192536    12518.331 
   12600    301.48241    260.16057   -3005.3522   -2556.9199   -90.113999    12517.262 
   12650    290.99419    259.81593   -2993.8644   -2561.0326     205.9934    12516.053 
   12700    294.66225    259.95864   -2998.6212   -2560.3334    107.06387    12514.812 
   12750    299.95739    260.37452   -3012.4839   -2566.3201   -170.11637    12513.506 
   12800    293.57751    260.15821   -3005.2736   -2568.5993   -64.518035    12512.005 
   12850    286.50061    259.88999   -2996.3331   -2570.1852    84.915734    12510.364 
   12900    295.36094     260.3175   -3010.5835   -2571.2565   -263.33708    12508.608 
   12950    291.23901     260.2585   -3008.6168   -2575.4208   -208.81863    12506.607 
   13000    293.74728    260.33365   -3011.1216   -2574.1948   -313.37788    12504.365 
   13050    289.45317    260.09823   -3003.2744   -2572.7347   -133.94105    12501.845 
   13100    295.60682    260.34611   -3011.5369   -2571.8441   -247.43149    12499.103 
   13150    286.30781    260.07887   -3002.6289   -2576.7678    157.29356    12496.138 
   13200    282.35022    259.89323    -2996.441   -2576.4664    373.55161    12493.148 
   13250    288.75629     260.2031   -3006.7701    -2577.267    92.676573    12490.218 
   13300    275.83442     259.7713   -2992.3765   -2582.0937    428.74273    12487.261 
   13350    269.65271     259.6634     -2988.78    -2587.692    530.45281     12484.44 
   13400    287.48789    260.35622   -3011.8739   -2584.2575    -85.95896    12481.756 
   13450    292.47024    260.71042   -3023.6805   -2588.6532   -364.49976    12478.936 
   13500    297.00104    260.81195    -3027.065   -2585.2985   -480.59798    12475.809 
   13550     291.1455    260.64595   -3021.5318    -2588.475   -237.91108     12472.31 
   13600    283.47721    260.44878   -3014.9595   -2593.3086    43.330308    12468.559 
   13650    288.02132    260.54228   -3018.0761   -2589.6662   -67.330127    12464.705 
   13700      294.605    260.78796   -3026.2654   -2588.0628   -204.37565    12460.698 
   13750     286.7879    260.49969   -3016.6564   -2590.0811     167.4087    12456.485 
   13800    294.20717    260.82246   -3027.4152   -2589.8043   -43.164548    12452.227 
   13850    292.05882    260.72264    -3024.088   -2589.6726    101.23269    12447.849 
   13900    281.96422    260.33063   -3011.0211   -2591.6207    543.08496    12443.427 
   13950    283.11625     260.4889   -3016.2966   -2595.1826    379.40069    12439.178 
   14000    282.55007    260.48347   -3016.1156   -2595.8438    338.46081    12435.038 
   14050    275.57323    260.24878   -3008.2925   -2598.3982    618.20333    12431.005 
   14100    303.40219    261.27554   -3042.5181   -2591.2303   -283.80284    12427.135 
   14150    298.46028    261.22755   -3040.9184   -2596.9813   -204.01119    12423.058 
   14200    280.58052     260.6116   -3020.3865   -2603.0443    391.52922     12418.78 
   14250    288.77682    260.99155   -3033.0516   -2603.5179    119.17191    12414.567 
   14300    295.71667     261.3391   -3044.6367   -2604.7806   -173.64035     12410.33 
   14350    293.95655    261.29774   -3043.2579   -2606.0198   -162.52882    12405.901 
   14400    285.60321    261.05662   -3035.2205   -2610.4074    96.259448    12401.279 
   14450    277.86934    260.80217    -3026.739   -2613.4295    383.17923    12396.608 
   14500    294.01584    261.38008   -3046.0028   -2608.6765   -103.30087    12392.012 
   14550    300.10663    261.66034   -3055.3448    -2608.959   -360.54945    12387.266 
   14600    297.44024    261.71552    -3057.184   -2614.7642   -414.33789    12382.213 
   14650    288.25845    261.46273   -3048.7575   -2619.9949    -159.1521    12376.836 
   14700    271.97873    260.87676   -3029.2253   -2624.6775    523.12306    12371.298 
   14750    276.04599    261.07955   -3035.9849   -2625.3874    487.71909    12365.916 
   14800    289.84685     261.6202   -3054.0066   -2622.8814    60.530671    12360.671 
   14850     288.2858    261.70095   -3056.6984   -2627.8951    12.135873    12355.374 
   14900    290.82512    261.86052   -3062.0173    -2629.437   -47.390842    12349.967 
   14950    277.54378    261.32973   -3044.3244   -2631.4991    468.98351    12344.464 
   15000    283.89376    261.67183   -3055.7278   -2633.4573     265.2104     12339.06 
   15050    280.60938    266.64205   -3054.7349   -2637.3497    349.32311     12333.74 
   15100    273.38656    266.40792   -3046.9307   -2640.2889    559.53836    12328.532 
   15150    284.59603    266.87999   -3062.6662   -2639.3512    156.94567    12323.518 
   15200     297.9327    267.34646   -3078.2152   -2635.0629   -211.92155    12318.502 
   15250    278.24804    266.60146   -3053.3821   -2639.5092     559.8618     12313.34 
   15300    280.91812    266.75841   -3058.6136   -2640.7692    496.06436    12308.349 
   15350    284.38162    266.95185   -3065.0617   -2642.0656    377.26499    12303.557 
   15400    284.35201    267.00403    -3066.801    -2643.849    518.71831    12298.886 
   15450    267.67832    266.37181    -3045.727   -2647.5758    1218.9735    12294.439 
   15500    278.66668    266.73604   -3057.8681   -2643.3725    910.89678    12290.526 
   15550    291.25281    267.16537   -3072.1792   -2638.9627    422.41395    12287.024 
   15600    292.65504    267.22415   -3074.1385   -2638.8363    282.67728    12283.678 
   15650     293.7025    267.22015    -3074.005   -2637.1448    265.54812     12280.41 
   15700    286.42126    267.04132    -3068.044   -2642.0141    610.64271    12277.218 
   15750    276.15257    266.68625   -3056.2083   -2645.4522    995.11384    12274.269 
   15800    286.00111    267.06256   -3068.7519   -2643.3469    630.34454    12271.735 
   15850    278.23041    266.67306   -3055.7685   -2641.9219    969.54512    12269.517 
   15900    279.71931    266.64319    -3054.773   -2638.7118    1023.9268    12267.718 
   15950    293.24477     267.2171   -3073.9032   -2637.7238    569.50312    12266.369 
   16000    281.03808    266.74291   -3058.0971   -2640.0743    932.33073    12265.304 
   16050    291.56521    267.05371   -3068.4569   -2634.7758    586.93102    12264.609 
   16100     289.3902    266.88039   -3062.6797   -2632.2338    694.08684    12264.189 
   16150    290.01328    266.88676    -3062.892   -2631.5192    699.78064    12264.046 
   16200    289.33115    266.90199   -3063.3996   -2633.0415    804.16039    12264.192 
   16250    284.33896    266.65336   -3055.1121   -2632.1795     1045.752     12264.71 
   16300    286.92308    266.66608   -3055.5361   -2628.7598    906.40289    12265.693 
   16350    290.65781    266.65783    -3055.261   -2622.9295    845.32081    12267.062 
   16400    276.98416    266.10507   -3036.8356   -2624.8427    1412.5309     12268.85 
   16450    289.04604    266.53235   -3051.0782   -2621.1441    1173.3669    12271.259 
   16500    287.05246    266.45964   -3048.6546   -2621.6858    1290.8222    12274.245 
   16550    294.22074    266.58196   -3052.7319   -2615.1009    1060.9887    12277.826 
   16600    290.84738    266.42411   -3047.4703   -2614.8569    1120.7529    12281.912 
   16650    299.88276    266.76608   -3058.8695   -2612.8166     836.0181    12286.489 
   16700    298.19053    266.69929   -3056.6429   -2613.1071     916.5333    12291.453 
   16750    295.16319    266.53199   -3051.0662   -2612.0333    1099.5457    12296.824 
   16800    283.79354    265.95986   -3031.9955   -2609.8741     1507.038    12302.724 
   16850    287.70169    266.09775   -3036.5917   -2608.6572    1303.8991    12309.321 
   16900    293.91618    266.29923   -3043.3078   -2606.1297     1005.202    12316.543 
   16950    297.84869    266.32863   -3044.2878   -2601.2605    814.06492    12324.218 
   17000    296.58534    266.19179   -3039.7262    -2598.578    799.13617    12332.248 
   17050    287.84411    265.77899   -3025.9665   -2597.8202    1058.9556    12340.639 
   17100    291.53613     265.7708   -3025.6933   -2592.0554    945.55175     12349.48 
   17150    288.38675    265.70293    -3023.431   -2594.4776    892.92603    12358.741 
   17200    299.07251    266.16011   -3038.6704   -2593.8227    312.03987    12368.372 
   17250    288.74992    265.67969   -3022.6563   -2593.1627    596.60863    12378.125 
   17300    280.61865    265.29271    -3009.757    -2592.358    947.97622    12388.088 
   17350    291.58914     265.6867   -3022.8899   -2589.1732    539.06461    12398.444 
   17400    293.76578     265.7007   -3023.3566   -2586.4023    405.83682    12409.008 
   17450    285.21977    265.35281   -3011.7604   -2587.5176    640.37736    12419.692 
   17500    283.55065    265.41246   -3013.7487   -2591.9886    531.55023    12430.602 
   17550     292.6873    265.60423    -3020.141   -2584.7909    198.76181    12441.691 
   17600    298.40568    265.73485   -3024.4948    -2580.639   -2.6684604     12452.77 
   17650    287.21851    265.29055   -3009.6849   -2582.4692    202.86979     12463.75 
   17700    295.67455    265.67725   -3022.5751   -2582.7816   -313.11315    12474.673 
   17750     288.7092    265.37032    -3012.344   -2582.9109   -214.63746    12485.339 
   17800    296.81984    265.52949   -3017.6498   -2576.1528   -469.54889    12495.729 
   17850    295.36232    265.50261   -3016.7536   -2577.4245   -493.26961    12505.746 
   17900    290.88958    265.27954   -3009.3179   -2576.6417   -319.20076    12515.355 
   17950    288.25895    265.11809   -3003.9364   -2575.1731   -205.70984    12524.651 
   18000    292.19942    265.30149   -3010.0497   -2575.4252   -393.03365    12533.685 
   18050    283.62192    259.97734   -2999.2447   -2577.3786   -186.13848    12542.387 
   18100     285.6233    259.96706   -2998.9021   -2574.0591   -258.83848    12550.807 
   18150    282.88743    259.89399   -2996.4662   -2575.6926   -296.62116    12558.939 
   18200    289.10477    259.97509   -2999.1695   -2569.1481   -553.95829    12566.746 
   18250    299.92008    260.27481   -3009.1605   -2563.0521   -976.99732    12574.072 
   18300    307.48016    260.58983   -3019.6612   -2562.3077   -1307.8446    12580.685 
   18350    300.55949    260.26357   -3008.7858   -2561.7263    -1114.878    12586.426 
   18400    293.92947    259.99877   -2999.9591   -2562.7613   -965.50426    12591.367 
   18450    289.00768    259.77756   -2992.5852   -2562.7082   -788.57007    12595.617 
   18500    297.53007    260.05151   -3001.7171   -2559.1637   -1038.7045    12599.252 
   18550    298.10448    260.04491   -3001.4969   -2558.0891   -1101.9839    12602.161 
   18600    288.59931    259.81964    -2993.988   -2564.7184   -723.11252    12604.303 
   18650    267.24337    258.87867   -2962.6222    -2565.118    114.82472    12605.948 
   18700    288.83912    259.74777   -2991.5923    -2561.966   -652.59946    12607.434 
   18750     297.9731    260.01844   -3000.6146   -2557.4021   -961.01616    12608.452 
   18800    294.09112    259.76631   -2992.2103   -2554.7721   -780.87871     12608.81 
   18850    300.24037    259.90639   -2996.8797    -2550.295   -906.00928    12608.559 
   18900      292.966    259.64665   -2988.2216   -2552.4569   -600.46144     12607.69 
   18950    294.30844    259.59814   -2986.6047   -2548.8432   -577.81166     12606.34 
   19000    306.01768    260.05226    -3001.742   -2546.5639   -984.13403    12604.507 
   19050    296.41803    259.65277   -2988.4257   -2547.5263   -613.79433    12602.035 
   19100    296.75698    259.68217   -2989.4057   -2548.0022   -555.04031    12599.073 
   19150    286.84225     259.3118   -2977.0599   -2550.4038   -186.87061     12595.71 
   19200    297.15748    259.68597   -2989.5325   -2547.5332   -383.61197    12592.082 
   19250    304.87098    259.83326   -2994.4421   -2540.9697    -484.9096    12588.143 
   19300    309.39367    259.96533   -2998.8444   -2538.6447   -531.23991    12583.813 
   19350    303.93457    259.67502   -2989.1675   -2537.0878    -241.4597    12579.077 
   19400    298.53144    259.45569   -2981.8562   -2537.8133   -9.9559627    12574.108 
   19450    299.38291    259.45032   -2981.6773    -2536.368     40.13197    12569.017 
   19500    310.21236    259.86696   -2995.5655   -2534.1481   -272.66551    12563.819 
   19550    303.26966     259.6542   -2988.4732   -2537.3826   -94.531332    12558.411 
   19600    296.90585    259.42235    -2980.745     -2539.12    127.23596    12552.845 
   19650    294.25842    259.26291   -2975.4302   -2537.7431    202.26755    12547.253 
   19700    310.06837    259.91509   -2997.1696   -2535.9664   -317.11529    12541.633 
   19750    311.44146    259.93279   -2997.7598   -2534.5142   -273.84782    12535.775 
   19800    303.20941    259.63309   -2987.7695   -2536.7685    197.01586    12529.676 
   19850    296.16941    259.33247   -2977.7489   -2537.2194    665.10502    12523.603 
   19900     306.3118    259.71843   -2990.6142   -2534.9986    415.86017    12517.782 
   19950     300.9825    259.46498   -2982.1661   -2534.4775    568.35959    12512.126 
   20000    308.86765    259.69122   -2989.7074   -2530.2901     301.2096    12506.671 
   20050    309.02669    264.64414    -2988.138   -2528.4842    316.51348     12501.32 
   20100    310.42515    264.76225   -2992.0752   -2530.3413    312.48977     12496.06 
   20150    316.43184    265.00107   -3000.0356   -2529.3672    211.26465    12490.906 
   20200    313.11815    264.94673   -2998.2242   -2532.4847     445.9427    12485.809 
   20250    303.65544    264.53415   -2984.4718   -2532.8074      904.187    12480.892 
   20300    307.13781    264.63988   -2987.9962   -2531.1519    861.52641    12476.369 
   20350    311.26936    264.77266   -2992.4221   -2529.4325     739.9078    12472.262 
   20400     316.5812    264.96278   -2998.7593   -2527.8688    596.64739     12468.49 
   20450    316.70923    264.95198   -2998.3994   -2527.3184    647.99953    12464.983 
   20500    308.77029    264.71723   -2990.5743   -2531.3019    922.41153    12461.771 
   20550    311.18165    264.82512   -2994.1707   -2531.3115    867.73942    12458.959 
   20600    305.48519    264.58029   -2986.0096   -2531.6235    1155.6505    12456.574 
   20650    310.87215    264.83631   -2994.5435   -2532.1448    1102.2873    12454.726 
   20700    313.24195    264.94491   -2998.1638   -2532.2401    1060.8501    12453.407 
   20750    312.20309    264.91071   -2997.0236   -2532.6451    1079.5516    12452.582 
   20800    307.40949    264.74312   -2991.4374   -2534.1891    1167.8038     12452.28 
   20850    309.41385    264.87336   -2995.7787   -2535.5491    1064.1957     12452.52 
   20900    299.74141     264.4194   -2980.6467    -2534.804    1302.8426    12453.279 
   20950    309.99025    264.90885   -2996.9618   -2535.8748    819.36302     12454.62 
   21000    311.58634    264.93091    -2997.697    -2534.236    786.48659    12456.341 
   21050    300.88996    264.60972   -2986.9905   -2539.4395    1162.3029    12458.404 
   21100    298.96125    264.51673   -2983.8911   -2539.2089    1188.7095    12460.983 
   21150    307.92145    264.94879   -2998.2929   -2540.2831    767.57881    12464.087 
   21200    294.91535    264.47077   -2982.3589   -2543.6947     1143.288    12467.564 
   21250    301.82071    264.75761   -2991.9205    -2542.985    882.30804    12471.523 
   21300    307.52806    265.05929   -3001.9765   -2544.5518    583.83664    12475.854 
   21350    309.10038    265.13405   -3004.4684    -2544.705    406.40421    12480.396 
   21400    320.24303    265.71356   -3023.7854   -2547.4482   -177.35049        12485 
   21450     303.4558    265.06572   -3002.1908   -2550.8233    279.95701    12489.431 
   21500    299.73577    264.88459   -2996.1531   -2550.3189    375.49796    12493.858 
   21550    305.31871    265.13989   -3004.6631   -2550.5246    136.92231    12498.346 
   21600    295.16082    264.80099   -2993.3663    -2554.337    405.58309    12502.808 
   21650    285.21036    264.36371   -2978.7902   -2554.5614     627.6047     12507.37 
   21700    288.33832    264.55361   -2985.1205   -2556.2391    379.06448    12512.156 
   21750    295.28247    264.86652   -2995.5507   -2556.3404   -47.662103     12517.02 
   21800    305.41883     265.3421   -3011.4035   -2557.1161   -539.87508    12521.703 
   21850    295.70798    265.00541   -3000.1803   -2560.3371   -251.82916    12525.995 
   21900    293.43925    265.00805   -3000.2682   -2563.7996   -197.10865     12529.99 
   21950    297.36069    265.18757   -3006.2523   -2563.9508    -297.2725    12533.741 
   22000    285.76549    264.87966   -2995.9887   -2570.9342     45.57648     12537.22 
   22050    288.54052    264.98497   -2999.4989   -2570.3168   -23.293126    12540.571 
   22100     295.9849    265.24466   -3008.1555   -2567.9004   -279.90732    12543.778 
   22150    298.11146    265.42391   -3014.1304   -2570.7122   -421.63766    12546.701 
   22200    274.33286    264.50744   -2983.5814   -2575.5321    326.01499    12549.321 
   22250     288.5696    265.05125   -3001.7085   -2572.4831   -258.80758    12551.918 
   22300    285.98449     265.0048   -3000.1602   -2574.7799   -251.70502    12554.278 
   22350    261.09747    264.12985   -2970.9951   -2582.6324    512.54946    12556.423 
   22400    282.88515    265.00929   -3000.3096   -2579.5394   -292.72582    12558.668 
   22450    289.51573    265.29283   -3009.7611   -2579.1284   -608.06557    12560.689 
   22500    287.97411    265.19222   -3006.4073   -2578.0677   -641.18498    12562.253 
   22550    282.39865    264.96099   -2998.6996   -2578.6531   -612.43417    12563.341 
   22600    285.04072    265.09772   -3003.2574   -2579.2809   -808.43471     12563.95 
   22650    281.58134    264.99449   -2999.8163   -2580.9854   -755.99998    12563.996 
   22700    287.91331    265.15982   -3005.3275   -2577.0782   -948.68059    12563.473 
   22750    290.02609    265.27891   -3009.2971   -2577.9052   -995.20085     12562.32 
   22800    282.99686    264.93329   -2997.7764     -2576.84   -689.77079    12560.521 
   22850    288.76487     265.1609   -3005.3634   -2575.8476    -852.8699    12558.195 
   22900    277.33924    264.70862   -2990.2872   -2577.7661   -497.14038    12555.332 
   22950    285.93943    264.97163   -2999.0543   -2573.7411   -675.74345    12552.048 
   23000    286.11252    265.03868   -3001.2892   -2575.7185   -668.44108    12548.312 
   23050    286.80103    265.16029    -3005.343   -2578.7482   -644.07348    12544.111 
   23100    269.31134    264.44945   -2981.6485   -2581.0683    28.548042    12539.519 
   23150    277.65496    264.89827    -2996.609   -2583.6183   -262.12531    12534.813 
   23200    281.20973    264.93541   -2997.8471    -2579.569   -311.06201    12529.906 
   23250    281.46363    264.93546   -2997.8487   -2579.1929   -219.14396    12524.764 
   23300    275.63335    264.60719   -2986.9064   -2576.9227    91.944585    12519.464 
   23350    282.67109    264.94559   -2998.1863   -2577.7345   -93.790622    12514.114 
   23400    300.25029    265.53384   -3017.7945    -2571.195   -546.85747    12508.635 
   23450     290.5966     265.1519   -3005.0635    -2572.823   -94.330051    12502.833 
   23500    290.10457    265.10486   -3003.4954   -2571.9869    120.49283     12496.89 
   23550    284.70999    264.86832   -2995.6108   -2572.1263    380.97812    12490.962 
   23600    287.42876    265.02622    -3000.874   -2573.3455    328.99162    12485.162 
   23650    291.62597    265.15155   -3005.0517   -2571.2802     267.9123    12479.492 
   23700    294.39713    265.24899   -3008.2998   -2570.4064    192.96609    12473.907 
   23750    292.55287    265.14149   -3004.7164   -2569.5662    292.76897    12468.378 
   23800    297.94277    265.34798   -3011.5993    -2568.432    290.87575    12462.919 
   23850    297.23981    265.33056   -3011.0187    -2568.897    442.40473    12457.581 
   23900    305.97212    265.58838   -3019.6126   -2564.5023    265.74836    12452.397 
   23950    284.62392    264.74363   -2991.4544   -2568.0979    1025.3374    12447.358 
   24000    300.04627    265.39197   -3013.0658   -2566.7697    527.96343    12442.741 
   24050     303.1204    265.45133   -3015.0444   -2564.1758    448.64285    12438.403 
   24100    310.22011    265.67591   -3022.5304   -2561.1014    303.56378    12434.228 
   24150    296.70294    265.15964   -3005.3215   -2563.9983    793.20329    12430.182 
   24200    307.52888    265.65658   -3021.8861   -2564.4602    407.48875    12426.448 
   24250    298.04766    265.25053    -3008.351   -2565.0277    783.77265    12422.926 
   24300    298.46553     265.2908   -3009.6932   -2565.7483     886.9874    12419.741 
   24350     298.0393    265.18723   -3006.2409     -2562.93    923.02556    12416.982 
   24400    302.80717    265.41534   -3013.8446   -2563.4419    728.33746    12414.639 
   24450    294.72726    265.07796   -3002.5987   -2564.2143    1024.1226    12412.651 
   24500    296.01589    265.11384   -3003.7947   -2563.4935    907.70397    12411.126 
   24550    311.27099    265.72491   -3024.1638   -2561.1718    412.19809    12409.969 
   24600    293.17918    265.04844   -3001.6145   -2565.5327      1115.03    12409.032 
   24650    300.49076      265.232   -3007.7335   -2560.7763    996.35865    12408.592 
   24700    296.50894    265.15555    -3005.185   -2564.1504    1097.7087    12408.604 
   24750    299.12454    265.22129   -3007.3762   -2562.4511     903.6595    12409.108 
   24800    319.72368     265.9576   -3031.9201   -2556.3553    185.66963    12409.986 
   24850    311.12366    265.58293   -3019.4311   -2556.6582    521.63236     12410.91 
   24900    306.62871    265.47618   -3015.8728   -2559.7859    648.90066     12411.99 
   24950    294.95763    265.00081    -3000.027   -2561.2998    1021.4119    12413.359 
   25000    310.85753    265.58941    -3019.647     -2557.27     473.4801    12415.133 
   25050    326.89622    261.17879   -3039.2931   -2553.0597   -15.775396    12417.045 
   25100    299.18937    260.15114    -3005.038   -2560.0165     966.5938    12418.883 
   25150    290.91542    259.87103   -2995.7011   -2562.9865    1291.4846    12421.092 
   25200     295.8462    260.03696   -3001.2321   -2561.1832    1081.6051     12423.88 
   25250    299.12681    260.22526   -3007.5088   -2562.5803    865.71247    12427.132 
   25300    296.01001    260.08638   -3002.8792   -2562.5868    895.33331     12430.77 
   25350    302.68824    260.33799   -3011.2662   -2561.0404    628.19721    12434.737 
   25400    286.88856    259.72034   -2990.6779   -2563.9529    1107.7588    12438.966 
   25450    303.94139    260.32425   -3010.8082   -2558.7184    462.45156    12443.598 
   25500    303.85297    260.35893   -3011.9643   -2560.0061    347.24462    12448.382 
   25550     300.6266    260.13118   -3004.3726   -2557.2133    499.07448    12453.218 
   25600    298.40369    260.07667   -3002.5557   -2558.7028    562.60132    12458.178 
   25650    302.62918      260.149   -3004.9668   -2554.8288    433.52017    12463.289 
   25700    301.34623    260.08366   -3002.7887   -2554.5591    442.90092    12468.485 
   25750    299.86524    260.01516   -3000.5052   -2554.4784    428.30718    12473.771 
   25800    300.85045    260.12439   -3004.1464   -2556.6541    280.99681    12479.138 
   25850    302.37863    260.25851    -3008.617   -2558.8517    202.68591    12484.512 
   25900     303.1529    260.33218   -3011.0726   -2560.1556    135.03438    12489.856 
   25950    307.94656    260.36836   -3012.2788   -2554.2317   -118.70989    12495.112 
   26000    312.57591    260.60471    -3020.157   -2555.2241   -424.92935    12500.127 
   26050     297.5698    260.13415   -3004.4716   -2561.8591    15.287791    12504.783 
   26100    282.06048    259.55535   -2985.1784   -2565.6348    600.51607    12509.293 
   26150    292.62518    260.00565   -3000.1884   -2564.9306    168.30194    12513.953 
   26200    312.11268    260.65365   -3021.7883   -2557.5444   -556.82792    12518.544 
   26250    301.22716    260.13894   -3004.6314   -2556.5789     -193.318    12522.726 
   26300    297.71991    259.96634   -2998.8781   -2556.0423   -52.583789    12526.636 
   26350    304.70476    260.25887    -3008.629   -2555.4037   -387.31128    12530.337 
   26400    305.11641    260.35305   -3011.7683   -2557.9308   -525.67899    12533.678 
   26450    302.58402    260.20043   -3006.6811   -2556.6103   -423.89448     12536.58 
   26500     288.8674    259.69929   -2989.9764    -2560.308    117.25603    12539.125 
   26550     285.9898    259.56889   -2985.6295   -2560.2414     242.8767    12541.585 
   26600    295.99745    259.93396   -2997.7987   -2557.5249   -156.10034    12544.022 
   26650    300.45787    260.09991   -3003.3305   -2556.4222   -305.03145    12546.238 
   26700    286.50193    259.54604    -2984.868   -2558.7181    190.79386    12548.177 
   26750    288.41507    259.60362   -2986.7872   -2557.7917     76.23906    12550.045 
   26800    305.94052    260.28224   -3009.4082   -2554.3448   -591.03974    12551.791 
   26850    294.87785    259.78052   -2992.6839   -2554.0755   -255.22283    12553.132 
   26900    301.07932    260.01698   -3000.5661   -2552.7334   -484.28384    12554.143 
   26950    302.10309    259.98995   -2999.6651   -2550.3096   -566.74846    12554.761 
   27000    301.36539    260.06867   -3002.2889   -2554.0307   -617.11157    12554.922 
   27050    301.96965    260.14836   -3004.9455   -2555.7885   -569.88183    12554.595 
   27100    298.46985    260.03803   -3001.2678   -2557.3165    -331.3455    12553.838 
   27150    294.89841    259.82953   -2994.3175   -2555.6785   -123.15814    12552.784 
   27200    294.74558    259.79541   -2993.1804   -2554.7687   -78.623935    12551.533 
   27250    295.49353    259.86979   -2995.6598   -2556.1356   -111.98163     12550.12 
   27300    297.82374    259.98066   -2999.3554   -2556.3651    -119.1422    12548.524 
   27350    287.63111    259.60633   -2986.8776   -2559.0481    316.27898    12546.776 
   27400     289.4438    259.63397   -2987.7989   -2557.2732    231.06175    12545.086 
   27450    297.32459    259.90891   -2996.9636   -2554.7158   -123.64313    12543.404 
   27500    287.98545    259.55664   -2985.2214   -2556.8649    202.93155    12541.578 
   27550    291.68577    259.72491   -2990.8303   -2556.9698    195.98316    12539.746 
   27600    297.67826    259.98265   -2999.4218   -2556.6479    79.388071    12537.925 
   27650    304.72616    260.09798    -3003.266   -2550.0089   -29.276466    12536.047 
   27700     300.9502     259.9084   -2996.9466    -2549.306    200.79495    12534.069 
   27750    298.74196    259.82208   -2994.0695   -2549.7135    295.01673    12532.094 
   27800    306.90033    260.21426   -3007.1419   -2550.6509   -20.607137    12530.151 
   27850    307.30446    260.22765   -3007.5882   -2550.4961    22.919616     12528.09 
   27900     293.9637    259.69823   -2989.9411   -2552.6923    468.91044    12525.979 
   27950    305.19569    260.08958    -3002.986   -2549.0305    106.91342    12523.984 
   28000    284.73601    259.28755   -2976.2518   -2552.7286    744.55162    12522.006 
   28050    292.66999    264.51019   -2983.6731   -2548.3486    530.47313    12520.295 
   28100     298.4324     264.6872   -2989.5732   -2545.6776    327.01193    12518.805 
   28150    298.85712    264.73581   -2991.1937   -2546.6663    277.42548    12517.419 
   28200    297.83642    264.61128   -2987.0428   -2544.0337    366.08504    12516.116 
   28250    296.40035    264.57597   -2985.8658   -2544.9928    489.46377     12514.92 
   28300    301.49028    264.68562   -2989.5207   -2541.0768    456.44791    12513.889 
   28350    301.22051    264.64674   -2988.2246   -2540.1819    588.78033    12513.027 
   28400    287.20926    264.05573   -2968.5242   -2541.3222    1185.7182    12512.444 
   28450     292.5821    264.16982   -2972.3274   -2537.1337    1079.8652    12512.386 
   28500    304.25773    264.54127   -2984.7091   -2532.1488    640.89891    12512.819 
   28550    310.25037    264.86176   -2995.3921   -2533.9182    343.02848    12513.513 
   28600    299.43579    264.39657   -2979.8857   -2534.4977    679.32942     12514.34 
   28650    300.32004    264.31779   -2977.2597   -2530.5564    707.69893    12515.416 
   28700    305.28231    264.48619   -2982.8729   -2528.7887    622.95899    12516.752 
   28750    292.99547    263.96661   -2965.5538   -2529.7452    1074.7644    12518.379 
   28800    309.20937    264.52674   -2984.2245    -2524.299    594.41199     12520.44 
   28850    305.15696    264.35778   -2978.5925   -2524.6947    729.48434    12522.762 
   28900    315.17832    264.61803   -2987.2678   -2518.4639    466.25497    12525.347 
   28950     315.3663    264.71839    -2990.613   -2521.5295    427.72945    12528.085 
   29000    311.57014    264.52782   -2984.2607   -2520.8237    566.58047    12530.953 
   29050    316.54552    264.68944   -2989.6478   -2518.8104    372.97044    12534.004 
   29100    297.01873    263.97407   -2965.8022   -2524.0094    988.60529    12537.201 
   29150    296.35955    263.84491   -2961.4971   -2520.6847    1093.5307    12540.787 
   29200     293.5121    263.64966   -2954.9887   -2518.4117    1241.9968     12544.88 
   29250    296.38699    263.72946   -2957.6487   -2516.7955    1138.5456    12549.528 
   29300    295.02783    263.71384   -2957.1281   -2518.2966    1063.1247    12554.705 
   29350     310.5598     264.2925   -2976.4166   -2514.4825    522.22604    12560.324 
   29400    307.71231    264.22863   -2974.2875   -2516.5888    550.09732    12566.132 
   29450    311.38446     264.2261   -2974.2033   -2511.0425    426.53525    12572.095 
   29500    299.64766     263.5972   -2953.2399   -2507.5367    811.61716    12578.193 
   29550    305.16933    263.86463   -2962.1544   -2508.2381    464.00052     12584.57 
   29600    317.00579    264.26757   -2975.5858   -2504.0637   -4.5759632     12591.07 
   29650    301.24714    263.65756   -2955.2522   -2507.1699    571.56302    12597.455 
   29700    300.26101    263.59545   -2953.1815    -2506.566    655.49321    12603.992 
   29750    295.90737    263.42026   -2947.3422   -2507.2024    752.76398    12610.783 
   29800    303.35368    263.60076   -2953.3587    -2502.143    502.24914    12617.828 
   29850    305.29107    263.68668   -2956.2225   -2502.1252    362.68316    12625.011 
   29900    310.75519     263.8252   -2960.8401   -2498.6153    222.21134    12632.245 
   29950    304.26955     263.6343   -2954.4767   -2501.8988    460.60437    12639.483 
   30000    310.35902    263.86358   -2962.1194   -2500.4839    272.96742    12646.789 
   30050    303.88907    263.66053   -2955.3509   -2503.3389    445.94404    12654.115 
   30100    296.37665    263.25318   -2941.7727   -2500.9349     673.0873    12661.565 
   30150    320.65597    264.26013   -2975.3376   -2498.3861   -321.48493    12669.166 
   30200    319.39084    264.14761   -2971.5871   -2496.5175   -382.31305    12676.469 
   30250     315.6997    263.96798   -2965.5995   -2496.0201   -312.77231    12683.398 
   30300    316.64037    264.07157   -2969.0523   -2498.0737   -473.24892     12689.96 
   30350    301.61965     263.4227   -2947.4234    -2498.787   -14.186482      12696.1 
   30400    303.21784    263.56178   -2952.0594   -2501.0458   -73.943996     12702.04 
   30450    301.79525    263.52335   -2950.7783   -2501.8808    40.071885    12707.805 
   30500    285.59973    262.82112   -2927.3706   -2502.5626    590.06079    12713.477 
   30550     301.3138    263.48017   -2949.3389   -2501.1575   -75.048657    12719.275 
   30600     303.5705    263.54377    -2951.459   -2499.9209   -363.63859    12724.902 
   30650    300.24304     263.5157   -2950.5233   -2503.9345   -364.09704    12730.156 
   30700    289.89106    263.15398   -2938.4661   -2507.2751   -10.135919     12735.08 
   30750    291.36113    263.22994   -2940.9981   -2507.6205   -34.034301     12739.84 
   30800     304.8333    263.68385   -2956.1283   -2502.7119   -460.14124     12744.41 
   30850    305.64938    263.68927   -2956.3089   -2501.6787   -479.63282    12748.589 
   30900    293.26681     263.2022   -2940.0732    -2503.861   -74.409212    12752.374 
   30950      296.325    263.36667   -2945.5555   -2504.7945    -166.4735    12755.932 
   31000    287.76821    262.93756    -2931.252   -2503.2186    77.191461    12759.284 
   31050    297.20663    263.26156   -2942.0521   -2499.9798   -339.96805    12762.514 
   31100    300.91375    263.28799    -2942.933   -2495.3466   -527.73899    12765.429 
   31150    297.45231    263.14756    -2938.252   -2495.8143   -488.97975    12767.904 
   31200    295.20751     263.0144   -2933.8133   -2494.7145    -399.9081    12769.958 
   31250    285.37319    262.64213   -2921.4042   -2496.9332   -26.216905    12771.662 
   31300    302.88862    263.36768   -2945.5892   -2495.0653   -617.49291    12773.158 
   31350     299.6471    263.34155   -2944.7183    -2499.016   -611.43566    12774.205 
   31400    285.03133     262.6963   -2923.2099   -2499.2474   -90.487195    12774.797 
   31450    292.53061    262.90789    -2930.263   -2495.1459   -220.01432     12775.17 
   31500    286.74684    262.72223   -2924.0745   -2497.5603    33.286451     12775.33 
   31550    299.21316    263.20616   -2940.2055   -2495.1486   -280.74853    12775.359 
   31600     299.0817     263.1494   -2938.3132   -2493.4518   -268.35628    12775.136 
   31650    293.09695    262.92821   -2930.9403   -2494.9808     21.95556    12774.642 
   31700    289.00959    262.64808   -2921.6027   -2491.7229    279.93691    12774.057 
   31750    298.07062    262.94763   -2931.5877   -2488.2302   -35.894933    12773.496 
   31800    300.27726    263.01866   -2933.9554   -2487.3157   -247.62317    12772.817 
   31850    308.99614    263.23462    -2941.154   -2481.5456   -579.67799     12771.87 
   31900    315.27396    263.47653   -2949.2178   -2480.2717   -836.09429    12770.465 
   31950    306.05025    263.06113   -2935.3711   -2480.1445   -487.07157    12768.498 
   32000    304.03299    262.92135   -2930.7115   -2478.4855   -300.59984    12766.108 
   32050    310.80143    263.12544   -2937.5148   -2475.2212   -454.81166    12763.409 
   32100    314.90201    263.17053   -2939.0178   -2470.6249   -571.84209    12760.358 
   32150    310.25824    262.98623   -2932.8744   -2471.3887   -327.89886    12756.891 
   32200    308.35667    262.84487   -2928.1623   -2469.5051   -91.102036     12753.11 
   32250    296.00311    262.30145   -2910.0482    -2469.766    357.39452    12749.219 
   32300     313.3182    262.94005    -2931.335    -2465.298   -177.39228    12745.386 
   32350    322.19063     263.2626   -2942.0868   -2462.8527   -336.50648    12741.362 
   32400    320.81218    263.14522   -2938.1741   -2460.9903   -114.30017    12737.061 
   32450    322.05863    263.27315   -2942.4385   -2463.4007   -41.521441    12732.591 
   32500    304.84772    262.56128   -2918.7095   -2465.2716    751.36911    12728.053 
   32550    312.18881    262.78737   -2926.2456   -2461.8884    709.65882    12723.819 
   32600     321.5658    263.10363   -2936.7876   -2458.4829    428.17492    12719.889 
   32650    314.05877    262.85845   -2928.6149   -2461.4763    579.53285    12716.142 
   32700    322.19323    263.06292   -2935.4305   -2456.1925    317.59642     12712.61 
   32750      322.415    263.10825   -2936.9416   -2457.3738    329.52365    12709.183 
   32800    324.85989    263.20565   -2940.1885    -2456.984    312.56514    12705.852 
   32850    322.89289    263.15157   -2938.3856   -2458.1069    425.52582    12702.605 
   32900    315.18776     262.8931   -2929.7701   -2460.9522    721.58684    12699.514 
   32950    310.77019    262.79379   -2926.4597   -2464.2126    966.75067    12696.761 
   33000    306.02585    262.66408    -2922.136   -2466.9457    1215.4734    12694.485 
   33050     317.7668    262.98749   -2932.9164   -2460.2624     730.2594     12692.77 
   33100    330.52686    263.53397   -2951.1325   -2459.4988    45.537076    12691.363 
   33150    321.10573     263.1545   -2938.4832   -2460.8628    334.31469    12689.936 
   33200    302.31255    262.48349   -2916.1163   -2466.4493    992.59757    12688.628 
   33250    304.81585    262.48041   -2916.0135    -2462.623    967.10398    12687.737 
   33300     312.9754    262.91336   -2930.4453   -2464.9181    650.47819    12687.282 
   33350    318.40308    263.13309   -2937.7698   -2464.1693    429.11606    12687.102 
   33400    327.20646    263.51001   -2950.3336   -2463.6388    86.537131    12687.054 
   33450     323.6025    263.45121   -2948.3738   -2467.0396    186.92985    12686.954 
   33500    303.17039    262.67015   -2922.3382   -2471.3952      872.011    12686.871 
   33550    303.25623    262.65707   -2921.9023   -2470.8316    853.03959    12687.136 
   33600    316.49638    263.14086   -2938.0286   -2467.2642      319.526    12687.768 
   33650    314.21072     263.1527   -2938.4233   -2471.0587    309.15264    12688.501 
   33700    308.28242    263.13398   -2937.7994   -2479.2526      401.446    12689.301 
   33750    317.29951    263.40781   -2946.9272   -2474.9682    61.792681    12690.188 
   33800     310.7728    263.14727   -2938.2422   -2475.9912    268.53677    12691.013 
   33850    311.36923    263.23696    -2941.232   -2478.0938    265.57879    12691.875 
   33900    317.69758    263.51871   -2950.6237   -2478.0726   -46.218915    12692.765 
   33950    319.43992    263.73442   -2957.8138   -2482.6712   -349.30532    12693.496 
   34000    310.77121    263.42124   -2947.3748   -2485.1261   -162.01809    12693.924 
   34050      302.352     263.0918   -2936.3933   -2486.6676    126.91266    12694.139 
   34100    306.67107    263.40829    -2946.943    -2490.793      -105.95    12694.287 
   34150    310.74891    263.65658   -2955.2193   -2493.0038   -301.19939    12694.251 
   34200    302.98769    263.37797   -2945.9325   -2495.2613   -79.245641    12693.952 
   34250    309.23562    263.55244    -2951.748   -2491.7835    -211.5613    12693.439 
   34300    300.67511    263.39909   -2946.6363   -2499.4048   -46.616819    12692.703 
   34350    311.52035    263.92075   -2964.0251   -2500.6622   -538.77989    12691.791 
   34400    304.97331    263.63618   -2954.5394   -2500.9147   -374.86967    12690.495 
   34450     304.5045    263.68125   -2956.0417   -2503.1143    -350.2118    12688.851 
   34500    300.90947    263.60029    -2953.343    -2505.763   -187.62422    12686.903 
   34550    283.67991    262.96014   -2932.0047   -2510.0523    401.46995    12684.779 
   34600    306.02469    263.79037   -2959.6788   -2504.4903   -363.37417    12682.688 
   34650    306.77235     263.8259   -2960.8634   -2504.5627   -544.93758    12680.322 
   34700    304.54824     263.8738   -2962.4599   -2509.4675   -556.56126    12677.528 
   34750    296.29738    263.57259   -2952.4196   -2511.6997   -209.13248     12674.34 
   34800    293.74592    263.43213   -2947.7378    -2510.813   -14.691166     12670.93 
   34850    297.26241    263.67712    -2955.904   -2513.7487   -167.14211     12667.39 
   34900    297.15491    263.61672   -2953.8905   -2511.8951   -179.34362    12663.659 
   34950    293.79763    263.48174   -2949.3912   -2512.3895   -96.425046    12659.744 
   35000    313.77872    264.32149    -2977.383    -2510.661   -813.55162    12655.629 
   35050    312.60248    264.30626   -2976.8754   -2511.9029   -772.09136     12650.99 
   35100    289.93438    263.50575   -2950.1916   -2518.9362    50.230784    12645.854 
   35150    295.17269     263.6549   -2955.1632   -2516.1162    37.600493    12640.605 
   35200    294.84104    263.67867   -2955.9556   -2517.4019    127.01864    12635.308 
   35250    300.48757    263.92795   -2964.2649   -2517.3124    10.920147    12629.994 
   35300    311.42494    264.33093   -2977.6978   -2514.4768   -354.00016    12624.587 
   35350    298.13232     263.7991   -2959.9701   -2516.5208    25.305644    12618.936 
   35400    311.60551    264.38963   -2979.6542   -2516.1647   -453.23247    12613.146 
   35450     303.7879    264.19274   -2973.0913   -2521.2298   -149.81196    12607.084 
   35500    316.13624    264.64739   -2988.2463   -2518.0176   -380.02479    12600.822 
   35550    306.14972     264.2187   -2973.9566   -2518.5821    70.816329    12594.309 
   35600    294.14241    263.85157   -2961.7189   -2524.2044     548.7017     12587.75 
   35650    294.90866    263.84593   -2961.5311   -2522.8769    682.89464    12581.428 
   35700    288.86401    263.63014    -2954.338   -2524.6747    938.84691    12575.446 
   35750    304.08168    264.33457   -2977.8189   -2525.5204    386.67021    12569.877 
   35800    303.87231    264.37202   -2979.0674   -2527.0804    402.76853    12564.488 
   35850    294.65085    263.99921   -2966.6403   -2528.3695     720.4255    12559.274 
   35900    306.38681    264.46994   -2982.3315   -2526.6043    297.25947    12554.347 
   35950    304.90494     264.3555   -2978.5167   -2524.9937     416.7501    12549.539 
   36000    303.58403    264.39724   -2979.9079   -2528.3496    457.13104    12544.899 
   36050    322.80355    265.11323   -3003.7744   -2523.6286   -75.231419    12540.385 
   36100    311.72052    264.71402   -2990.4673   -2526.8067    330.65548    12535.806 
   36150     313.4865    264.88688   -2996.2293   -2529.9419     277.9696    12531.297 
   36200    316.19949    264.96563   -2998.8544   -2528.5316    202.67575    12526.859 
   36250     311.4177     264.7489   -2991.6301   -2528.4198    315.09935    12522.454 
   36300    314.07144    264.85145   -2995.0485    -2527.891    239.21087    12518.109 
   36350    299.05287    264.35447   -2978.4823   -2533.6638    759.91706    12513.854 
   36400    295.89538    264.25941   -2975.3138   -2535.1918    931.00974     12509.93 
   36450    306.30906    264.70293   -2990.0975    -2534.486    606.82183    12506.424 
   36500      292.685    264.25311   -2975.1037   -2539.7569    1009.6248    12503.215 
   36550    312.35912    265.14082    -3004.694   -2540.0835    231.16384    12500.408 
   36600    313.16121    265.20782   -3006.9274   -2541.1238    162.23207    12497.694 
   36650    292.20614    264.47242   -2982.4141   -2547.7796    966.19575    12495.022 
   36700    299.10237    264.72116   -2990.7052   -2545.8131     774.4197    12492.745 
   36750    299.15365    264.64173   -2988.0576   -2543.0893    682.20091    12490.838 
   36800    302.20082    264.80345   -2993.4482   -2543.9474    522.86463    12489.195 
   36850    299.64588    264.74812   -2991.6041   -2545.9036    576.46525    12487.758 
   36900    307.91533    265.15574   -3005.1915   -2547.1908    301.59722    12486.516 
   36950    301.31869    264.89541   -2996.5138   -2548.3251    614.84654    12485.386 
   37000    302.33952    264.96278   -2998.7592   -2549.0521    581.71741    12484.483 
   37050    290.65455    264.64314   -2988.1048   -2555.7782    802.91325    12483.826 
   37100    291.90681    264.72352    -2990.784   -2556.5947    613.40077    12483.495 
   37150    302.71468    265.14024   -3004.6747   -2554.4095    179.33501    12483.397 
   37200    303.32314    265.14763   -3004.9211    -2553.751    283.38106    12483.321 
   37250    301.74587    265.20279   -3006.7598   -2557.9357    364.16504    12483.301 
   37300    304.91612    265.33902   -3011.3008   -2557.7612    152.11303     12483.37 
   37350    303.21669     265.2787   -3009.2901   -2558.2783    62.291684     12483.43 
   37400     300.5698    265.33096   -3011.0321   -2563.9573    80.233125    12483.417 
   37450      291.062    264.94923   -2998.3077    -2565.375    435.96424    12483.361 
   37500     291.8314    265.07286   -3002.4288   -2568.3517    392.37382     12483.42 
   37550    291.81103    265.00507   -3000.1689   -2566.1221    409.00824    12483.612 
   37600    288.78562    264.87575   -2995.8582   -2566.3115    495.20514    12483.935 
   37650     285.5766    264.79158   -2993.0527   -2568.2792    545.94597    12484.418 
   37700    285.12218    264.76883   -2992.2945   -2568.1968    443.51141    12485.113 
   37750    300.46642    265.39426   -3013.1418   -2566.2208   -226.48962    12485.916 
   37800    291.34189    265.13669   -3004.5564   -2571.2074   -51.108551    12486.531 
   37850    291.75878    265.20226    -3006.742    -2572.773    -44.83818    12486.985 
   37900    294.04344    265.25289   -3008.4296   -2571.0622   -90.117465    12487.307 
   37950    293.21874    265.24223   -3008.0744   -2571.9338   -113.45367     12487.48 
   38000    300.92566     265.4212   -3014.0401   -2566.4359   -334.46967    12487.481 
   38050    297.95566    260.36615   -3012.2052   -2569.0187   -148.57249    12487.196 
   38100     297.5096    260.32911   -3010.9702   -2568.4472   -89.153215    12486.698 
   38150    304.47504    260.62636   -3020.8786   -2567.9951   -364.96467    12486.018 
   38200     307.7422    260.78551   -3026.1838   -2568.4406   -430.11814    12485.017 
   38250    295.97712    260.31514   -3010.5047   -2570.2611    47.433569    12483.685 
   38300    288.81106    260.13642   -3004.5475   -2574.9629    336.52262    12482.245 
   38350    296.83584    260.45687    -3015.229   -2573.7081   -6.7374805    12480.851 
   38400    304.83577    260.75285    -3025.095   -2571.6748   -297.60095     12479.34 
   38450    288.43161    260.10718   -3003.5726   -2574.5525    343.38065    12477.604 
   38500    308.01162    260.85435   -3028.4783   -2570.3343   -281.45686    12475.862 
   38550    297.82033    260.53158   -3017.7193   -2574.7341   -39.058775    12473.902 
   38600    289.50928    260.20622   -3006.8741    -2576.251    223.41552    12471.803 
   38650    306.26757     260.8116   -3027.0534   -2571.5036   -294.57868    12469.665 
   38700    301.85536     260.5418     -3018.06    -2569.073    -59.44621    12467.295 
   38750    294.75648    260.28247   -3009.4155   -2570.9876    175.46258    12464.786 
   38800    292.89875    260.24106   -3008.0355   -2572.3708    219.45397    12462.254 
   38850    291.63273     260.2644   -3008.8135   -2575.0319     311.2433    12459.741 
   38900     296.7514     260.4506   -3015.0201   -2573.6248    245.81935    12457.285 
   38950    295.73536    260.45774   -3015.2579    -2575.374    307.56535    12454.862 
   39000    308.50869    260.89262    -3029.754   -2570.8707   -145.53895    12452.469 
   39050    310.94497    261.05907   -3035.3025   -2572.7954   -329.49827    12449.894 
   39100    288.94376    260.17277   -3005.7589   -2575.9769    478.70598    12447.071 
   39150    291.88738    260.37338    -3012.446   -2578.2857    384.36073    12444.352 
   39200    300.36363    260.63758   -3021.2526   -2574.4844    92.086093    12441.736 
   39250    297.27355    260.54414    -3018.138   -2575.9662    184.76525    12439.084 
   39300    309.24907    261.01931   -3033.9771   -2573.9926   -157.12522    12436.391 
   39350    304.18197     260.8269   -3027.5633   -2575.1156    23.652566    12433.533 
   39400    298.51579    260.59247   -3019.7491   -2575.7294    266.19164    12430.569 
   39450    288.38854     260.2592   -3008.6399   -2579.6838    626.08652    12427.671 
   39500    300.41104    260.73551   -3024.5171   -2577.6785    336.27712    12424.963 
   39550    299.64089    260.70796   -3023.5987   -2577.9056    451.41587    12422.358 
   39600    302.65254    260.74024   -3024.6747    -2574.502    420.71605    12419.885 
   39650     294.4463    260.44442   -3014.8141   -2576.8475    726.53512    12417.551 
   39700    296.12126    260.50322   -3016.7739    -2576.316    657.45897    12415.487 
   39750    306.87037    260.85447   -3028.4822   -2572.0358    259.91958    12413.654 
   39800    302.88098    260.78102   -3026.0341   -2575.5216     334.3848    12411.894 
   39850    302.73472    260.77843   -3025.9478   -2575.6529    304.24002    12410.202 
   39900    302.65589    260.75933   -3025.3109   -2575.1332    321.87161    12408.563 
   39950    291.28852    260.34616   -3011.5387   -2578.2691    775.72479    12407.024 
   40000    292.94788    260.41269   -3013.7564   -2578.0186    799.67727    12405.788 
   40050    303.90557    260.83066   -3027.6887   -2575.6522    451.16414    12404.875 
   40100    302.93142    260.80242   -3026.7473   -2576.1598     524.4386    12404.123 
   40150    309.23354    261.01785   -3033.9282   -2573.9667    372.09492    12403.532 
   40200    310.23257    261.03336   -3034.4454    -2572.998    293.10998    12403.032 
   40250    307.97202    260.88873   -3029.6242   -2571.5391    347.03623    12402.578 
   40300    306.22278    260.82076   -3027.3588   -2571.8756    378.54818    12402.207 
   40350    305.12374    260.87004   -3029.0014    -2575.153    358.23068    12401.937 
   40400    308.60611    260.98831   -3032.9438   -2573.9156    229.68604    12401.727 
   40450    304.35276    260.82768   -3027.5893   -2574.8877    431.10181    12401.559 
   40500    312.45154    261.21479   -3040.4931   -2575.7451    140.50141    12401.502 
   40550    305.98535    260.92924   -3030.9747   -2575.8447    324.66207    12401.419 
   40600    300.31558    260.64933   -3021.6442   -2574.9476    526.16338    12401.387 
   40650     294.1747    260.51031   -3017.0103   -2579.4477    708.24625    12401.537 
   40700    305.33385    260.93684   -3031.2281   -2577.0671    290.03174    12401.927 
   40750    312.00591    261.22564   -3040.8548   -2576.7697   -9.0546727    12402.364 
   40800    302.52424     260.8178     -3027.26   -2577.2781    328.59398    12402.712 
   40850    298.73249    260.78607   -3026.2022   -2581.8603    440.03521    12403.113 
   40900    290.85924    260.53118   -3017.7058   -2585.0748    708.38762    12403.652 
   40950    290.78921    260.52506    -3017.502   -2584.9751    663.51069    12404.456 
   41000    293.17742    260.72925   -3024.3082    -2588.229    464.11376    12405.498 
   41050    290.84128    260.69132    -3023.044   -2590.4396    433.49926    12406.693 
   41100    301.75701     261.1707   -3039.0233   -2590.1827   -50.968965    12407.994 
   41150    302.20442    261.19309   -3039.7698   -2590.2636   -185.69045     12409.17 
   41200    297.83605    261.16074   -3038.6914   -2595.6828   -83.619509    12410.126 
   41250    281.23927     260.6133   -3020.4434   -2602.1213    496.57341    12410.961 
   41300    278.54431    260.56888   -3018.9628   -2604.6492    579.13872    12411.927 
   41350    275.33749    260.56388   -3018.7961   -2609.2525    511.83025    12413.107 
   41400    291.69821    261.26491   -3042.1637   -2608.2847   -231.00993    12414.417 
   41450    289.94469    261.31549   -3043.8497    -2612.579    -335.6201    12415.528 
   41500    289.38267    261.41112   -3047.0373   -2616.6025   -391.89634    12416.322 
   41550    278.89643     261.1042   -3036.8067   -2621.9694    -125.8173    12416.807 
   41600    294.27817    261.72564   -3057.5212   -2619.8047   -718.24158    12417.047 
   41650    281.04463    261.29936   -3043.3121   -2625.2795   -361.87719    12416.838 
   41700    274.10723    261.11312   -3037.1041   -2629.3903   -196.45145    12416.294 
   41750     281.1223    261.35838   -3045.2795   -2627.1313   -513.68265    12415.515 
   41800    284.76005    261.58627   -3052.8757   -2629.3167   -760.65336    12414.351 
   41850    281.73604    261.43621   -3047.8738   -2628.8128   -564.94997    12412.655 
   41900    267.60747     260.8794   -3029.3133   -2631.2675   -70.376528    12410.563 
   41950    290.42835    261.88763   -3062.9211    -2630.931   -899.19727    12408.241 
   42000    284.65647    261.65168   -3055.0562   -2631.6512   -636.19379    12405.385 
   42050    273.50411    266.19421   -3039.8068   -2632.9902   -101.91775    12402.091 
   42100    283.32518     266.5986   -3053.2866   -2631.8619   -436.98586    12398.593 
   42150    283.58651    266.64867   -3054.9555   -2633.1421   -521.03665    12394.783 
   42200    276.47478    266.35961   -3045.3204   -2634.0851   -293.24348    12390.617 
   42250    273.43144    266.34558   -3044.8525    -2638.144   -208.81783    12386.194 
   42300    283.19782     266.6222   -3054.0735   -2632.8382    -454.4218     12381.54 
   42350    278.58413    266.46754    -3048.918   -2634.5453   -298.89615    12376.571 
   42400    282.34362    266.49489   -3049.8298   -2629.8651   -318.55476    12371.339 
   42450    293.11407    266.95515   -3065.1717   -2629.1868    -571.5265    12365.831 
   42500    289.60626    266.83161   -3061.0537   -2630.2863   -350.75328    12359.943 
   42550    283.34367    266.52155   -3050.7182    -2629.266      -40.549    12353.781 
   42600    284.93413    266.62609   -3054.2031   -2630.3851     3.360494    12347.505 
   42650    292.38797    266.90914   -3063.6381   -2628.7332   -117.23815    12341.131 
   42700     281.7263     266.4987   -3049.9566     -2630.91     482.6692    12334.643 
   42750    275.18619    266.30752   -3043.5841   -2634.2655    772.24357    12328.336 
   42800    290.00409    266.85598   -3061.8659   -2630.5068    262.52288    12322.342 
   42850    278.35462    266.24957   -3041.6523   -2627.6209    798.95872    12316.481 
   42900    285.36581     266.5173   -3050.5767   -2626.1167    659.36901    12310.937 
   42950    285.19577    266.44198    -3048.066   -2623.8589    756.01572    12305.699 
   43000     282.9748    266.32245   -3044.0818   -2623.1782    940.66161    12300.805 
   43050    287.81965    261.54834   -3051.6112   -2623.5013    817.99404    12296.331 
   43100      295.058     261.7623   -3058.7435    -2619.867    614.62974    12292.203 
   43150    297.49598    261.72199   -3057.3996   -2614.8969    591.42527    12288.311 
   43200    287.43733    261.28308   -3042.7693    -2615.228    1020.4449    12284.663 
   43250     296.7141    261.63909   -3054.6364   -2613.2966    843.26833    12281.446 
   43300    286.55923    261.23083   -3041.0276   -2614.7924    1355.4506    12278.631 
   43350    283.84583    261.10182   -3036.7274   -2614.5282    1577.4736    12276.428 
   43400    289.85672    261.25865   -3041.9551   -2610.8152    1478.4935    12274.977 
   43450    283.94522    260.92946   -3030.9818   -2608.6349    1772.3623     12274.27 
   43500      294.487    261.24624   -3041.5414   -2603.5143    1448.4035    12274.407 
   43550    299.25024     261.4213   -3047.3766   -2602.2646    1276.5826    12275.221 
   43600    292.91329     261.1095   -3036.9832   -2601.2969    1565.3441    12276.644 
   43650     291.5198    261.07495   -3035.8316    -2602.218     1602.218    12278.824 
   43700    303.73454    261.50202   -3050.0672   -2598.2851    1123.6543    12281.739 
   43750    295.00646    261.17692   -3039.2308   -2600.4311    1333.0642    12285.201 
   43800    305.67541    261.52949   -3050.9832   -2596.3141    941.36105    12289.239 
   43850    306.97568    261.54245   -3051.4148   -2594.8118    913.27831    12293.688 
   43900    298.16907    261.12462   -3037.4874   -2593.9835    1199.2041    12298.531 
   43950     298.4781    261.06363   -3035.4542   -2591.4906    1091.6855    12303.903 
   44000    319.50528     261.7055   -3056.8499     -2581.61    395.15998    12309.718 
[...]
   89400     312.6477    245.74775   -3024.9251   -2559.8854   -230.03216    12461.475 
   89450    312.10924    245.73634   -3024.5446   -2560.3058   -153.34349     12461.03 
   89500    306.91366    245.53258   -3017.7528   -2561.2419    26.585956    12460.331 
   89550    313.19637     245.7216   -3024.0533   -2558.1974   -200.23288    12459.451 
   89600    326.40525    246.24115   -3041.3717   -2555.8686   -655.60423    12458.268 
   89650    310.39844    245.70764   -3023.5879   -2561.8938   -165.07485    12456.592 
   89700    312.77758    245.76605   -3025.5351   -2560.3021   -187.91429    12454.599 
   89750    328.24178    246.32221   -3044.0735   -2555.8388   -651.41795    12452.303 
   89800    315.13527    245.76343   -3025.4477   -2556.7078   -174.41396    12449.516 
   89850    316.71203    245.87173   -3029.0578   -2557.9727   -68.256801    12446.408 
   89900    309.56382    245.58576   -3019.5254   -2559.0727    242.17426    12443.106 
   89950    311.54033    245.68008   -3022.6695   -2559.2769    202.19177    12439.726 
   90000    323.90341    246.27839   -3042.6131   -2560.8313   -238.54285    12436.249 
   90050    313.23852    250.79251    -3026.417   -2560.4984    102.75847    12432.514 
   90100    317.28675    250.98729   -3032.9096   -2560.9696    64.602365    12428.627 
   90150    302.37027    250.44347   -3014.7824   -2565.0296    587.24698    12424.668 
   90200    324.56556    251.36879   -3045.6265   -2562.8598   -159.42313    12420.788 
   90250    309.25952    250.91087   -3030.3624   -2570.3623    212.81009    12416.718 
   90300    310.70646    251.04561   -3034.8538   -2572.7015    171.95584    12412.557 
   90350    308.84181    251.04686   -3034.8953   -2575.5165    211.56814    12408.347 
   90400    317.55196    251.36068    -3045.356   -2573.0215   -90.005566     12404.07 
   90450    315.30173    251.38704   -3046.2347   -2577.2472   -99.647268    12399.595 
   90500    294.30601     250.6453     -3021.51   -2583.7521    595.53921    12394.938 
   90550    311.79555     251.4816   -3049.3865   -2585.6143   -8.6900608    12390.371 
   90600    301.01321     251.2368   -3041.2266   -2593.4923    254.50278    12385.714 
   90650    291.22666    250.92535    -3030.845   -2597.6674    566.06854    12381.041 
   90700    293.88983    251.14201   -3038.0668    -2600.928    481.96566    12376.492 
   90750    288.86974    250.98362   -3032.7874   -2603.1155    627.93054    12372.077 
   90800     305.3709    251.63443   -3054.4809   -2600.2648    61.596724    12367.816 
   90850    291.29182    251.08445   -3036.1483   -2602.8738    466.37388    12363.507 
   90900     302.1295    251.38996    -3046.332   -2596.9372    110.65418    12359.231 
   90950    302.47409    251.56596   -3052.1986   -2602.2913   -56.256845    12354.874 
   91000    304.91052    251.64071   -3054.6903    -2601.159   -82.662835    12350.329 
   91050    303.14688    246.67877    -3055.959    -2605.051   -1.7635504    12345.576 
   91100     312.5155    247.10896   -3070.2985   -2605.4554    -239.5264    12340.616 
   91150     310.6594    247.11872   -3070.6241   -2608.5418   -180.77772     12335.37 
   91200    304.36508    246.92099   -3064.0329   -2611.3129    25.914097    12329.852 
   91250    309.11018    247.15023   -3071.6743   -2611.8964    -167.6564    12324.143 
   91300    308.63382    247.17788   -3072.5961   -2613.5266    -214.2794    12318.144 
   91350    283.71904    246.27497   -3042.4988   -2620.4883    610.57166    12311.908 
   91400    293.65006    246.69698   -3056.5661   -2619.7839    411.77954     12305.78 
   91450    293.01648    246.73291   -3057.7636   -2621.9238    486.59462    12299.725 
   91500    306.33356    247.26042   -3075.3473   -2619.6993    71.688203    12293.728 
   91550    302.55257    247.10098   -3070.0325   -2620.0085    252.98045    12287.638 
   91600    288.53861    246.59903    -3053.301   -2624.1217    795.46817    12281.531 
   91650     288.6281    246.64622   -3054.8741   -2625.5617    848.54718     12275.65 
   91700    291.57913    246.73279   -3057.7597   -2624.0579    797.78948    12270.063 
   91750    300.54445    246.96828   -3065.6093   -2618.5722    519.08332    12264.727 
   91800    308.27948     247.3454   -3078.1798   -2619.6375    189.00923    12259.485 
   91850    294.55943     246.9577   -3065.2567   -2627.1218    652.65353    12254.207 
   91900    293.92354    246.98484   -3066.1612   -2628.9722    810.92877    12249.109 
   91950     299.2199    247.17412   -3072.4706   -2627.4037    723.94713    12244.277 
   92000    307.56516    247.57842   -3085.9473   -2628.4674    388.27448    12239.654 
   92050    315.32764    242.79309   -3093.1031   -2624.0771    169.17546    12235.064 
   92100    297.10932    242.22042   -3074.0141   -2632.0865      820.469    12230.434 
   92150    301.87272     242.4483     -3081.61   -2632.5972    778.08659    12226.029 
   92200    296.62147    242.26331   -3075.4438   -2634.2418    968.48976    12221.884 
   92250    307.40952    242.64092   -3088.0305   -2630.7822    714.70027    12218.055 
   92300    309.89802    242.69733   -3089.9109   -2628.9611    669.45864    12214.451 
   92350    313.93543    242.84752   -3094.9173   -2627.9621    537.52315    12211.021 
   92400    306.40864    242.64926   -3088.3088   -2632.5492    716.21481    12207.723 
   92450     311.1203    242.76806   -3092.2687   -2629.5008     587.7824    12204.605 
   92500    303.79608    242.60001    -3086.667   -2634.7934    775.29275    12201.645 
   92550    310.04387    242.90292   -3096.7641   -2635.5974    532.91224    12198.904 
   92600    307.22127    242.84161   -3094.7204    -2637.752    634.29453    12196.276 
   92650     280.7258    241.88561   -3062.8535   -2645.2952    1450.8855    12193.852 
   92700    313.00046    243.12244   -3104.0812   -2638.5168    449.74977     12191.93 
   92750    299.93354    242.57236   -3085.7452   -2639.6168    927.53157     12190.18 
   92800    293.96516    242.37533   -3079.1776   -2641.9267    1109.8508    12188.746 
   92850    294.99732     242.3518   -3078.3935   -2639.6073    1010.9898    12187.733 
   92900    310.70635    243.00408    -3100.136   -2637.9839     475.1019    12187.051 
   92950    311.79103    243.02091   -3100.6969   -2636.9314    432.71241    12186.484 
   93000    304.92602    242.85444   -3095.1481   -2641.5937    620.39333    12185.977 
   93050    297.71776     247.5846   -3086.1532   -2643.3206    818.41805    12185.645 
   93100    306.78474    247.95018   -3098.3393   -2642.0202    462.91869    12185.558 
   93150    295.28346    247.70832   -3090.2774   -2651.0656    730.35227    12185.606 
   93200    307.69121    248.06707   -3102.2355   -2644.5682    410.73375    12185.864 
   93250    293.87832    247.62212   -3087.4041   -2650.2824    919.38983    12186.249 
   93300    277.84847    247.06973   -3068.9911   -2655.7126    1508.1193    12186.988 
   93350    291.48645    247.64517   -3088.1724   -2654.6084    1053.4766    12188.351 
   93400    295.52537    247.75659   -3091.8863   -2652.3147     1026.562    12190.165 
   93450    280.88377    247.21797   -3073.9324   -2656.1391    1402.8681     12192.43 
   93500    292.78865    247.74055   -3091.3516   -2655.8507    847.66658    12195.261 
   93550    289.96168    247.69946   -3089.9821   -2658.6861    760.12828    12198.449 
   93600    313.07647    248.53163    -3117.721   -2652.0435   -20.111526    12201.863 
   93650    294.81789    247.85777   -3095.2591   -2656.7399    520.10882    12205.213 
   93700    292.49458     247.8033   -3093.4434   -2658.3799    536.34434    12208.661 
   93750    289.17215    247.61202   -3087.0674   -2656.9458    531.67903    12212.262 
   93800    283.78431     247.5043   -3083.4768   -2661.3692    551.72515    12216.017 
   93850    292.70589    247.88576    -3096.192   -2660.8142     157.4105    12219.907 
   93900    290.36423    247.70844   -3090.2813   -2658.3865    178.82371    12223.773 
   93950    298.59636      248.038   -3101.2667   -2657.1272   -73.120932    12227.578 
   94000    292.20827    247.85577   -3095.1923   -2660.5547    90.155208    12231.223 
   94050    289.29114     247.7926   -3093.0866    -2662.788    189.20791     12234.78 
   94100     281.4051    247.47778   -3082.5928    -2664.024    473.12458    12238.318 
   94150    276.18166    247.21901   -3073.9672   -2663.1679    589.87605     12241.98 
   94200    290.73746    247.75498   -3091.8327   -2659.3828   -69.559579    12245.794 
   94250    297.30223    247.97478   -3099.1593   -2656.9448   -420.59506    12249.448 
   94300    277.36827    247.35916   -3078.6388   -2666.0745    199.23871    12252.796 
   94350    284.34224    247.50707   -3083.5691   -2660.6315     54.91556     12256.07 
   94400    295.12294    247.86255   -3095.4183   -2656.4453   -401.84211    12259.219 
   94450    298.85354    248.10237   -3103.4124   -2658.8904   -563.09732    12262.013 
   94500    281.96373    247.45109   -3081.7032   -2662.3035    71.024393    12264.394 
   94550     276.9653    247.16129    -3072.043   -2660.0781    292.77574    12266.654 
   94600     276.6491     247.2117   -3073.7234   -2662.2289    236.92272    12268.938 
   94650    296.48649    247.90331   -3096.7769   -2655.7757   -400.17776    12271.171 
   94700    295.50463    247.83498   -3094.4992   -2654.9585   -380.97261    12273.085 
   94750    285.65207    247.39022   -3079.6739   -2654.7881   -15.283471    12274.651 
   94800    294.51843    247.65766   -3088.5888   -2650.5149   -262.32551    12276.041 
   94850    291.77852    247.56988   -3085.6628   -2651.6644   -114.32393    12277.165 
   94900    284.69027    247.29127   -3076.3758   -2652.9206    217.61538    12278.076 
   94950     282.8554    247.17203   -3072.4009   -2651.6749    368.82709    12278.959 
   95000    296.32507    247.56053   -3085.3511     -2644.59   -7.9769767    12279.875 
   95050    310.33064    247.97161   -3099.0538   -2637.4605   -333.61487    12280.643 
   95100    294.06178    247.34785   -3078.2616    -2640.867    319.17669    12281.112 
   95150    281.84685    246.94351   -3064.7836   -2645.5577     690.5222    12281.595 
   95200    290.75652    247.13189   -3071.0629   -2638.5847    417.03253    12282.277 
   95250    302.83775    247.52386   -3084.1286   -2633.6804    94.366693    12283.024 
   95300    298.14891    247.13695   -3071.2316   -2627.7577    377.10976    12283.723 
   95350    303.13874    247.21957   -3073.9857   -2623.0898    326.30821     12284.45 
   95400    284.73527    246.55445   -3051.8149   -2628.2928    994.44825     12285.24 
   95450    292.12094    246.68928   -3056.3092   -2621.8015    899.40771    12286.389 
   95500    298.90988    246.93692   -3064.5641   -2619.9583    676.45953    12287.898 
   95550    297.12172    246.73415   -3057.8049   -2615.8589    787.32989    12289.635 
   95600    310.10818    247.15455   -3071.8183   -2610.5559     434.9244     12291.62 
   95650    309.31253     247.1026   -3070.0868   -2610.0078    487.68917    12293.721 
   95700    297.31853    246.60886   -3053.6287     -2611.39    787.81801    12295.975 
   95750    321.82461    247.50683    -3083.561   -2604.8713   -62.454349    12298.426 
   95800    308.82118    246.97385   -3065.7951    -2606.447    350.92132    12300.775 
   95850    307.89449    246.88715    -3062.905   -2604.9352    418.71048    12303.149 
   95900    321.34487    247.32844   -3077.6147   -2599.6386   -102.34863    12305.562 
   95950    308.57338    246.88196   -3062.7321   -2603.7526    246.99844    12307.808 
   96000    301.15931    246.58609   -3052.8696    -2604.918    549.22341    12310.031 
   96050    299.13726    251.53086   -3051.0288   -2606.0848    631.31172    12312.423 
   96100    308.21306    251.83682   -3061.2273   -2602.7837    315.94392    12315.001 
   96150    299.21123    251.48336   -3049.4453   -2604.3912    540.10091    12317.668 
   96200    307.67388    251.77253   -3059.0843   -2601.4427    260.99076    12320.471 
   96250    300.05766     251.4886   -3049.6202   -2603.3071     395.2811    12323.323 
   96300    313.85381    252.09419   -3069.8064   -2602.9727   -88.577057    12326.218 
   96350    292.75873    251.30429   -3043.4765     -2608.02     602.0301    12329.023 
   96400    293.67457    251.27162   -3042.3872   -2605.5685    652.43352    12331.976 
   96450    286.08661    250.95195   -3031.7317   -2606.1996    975.98242    12335.188 
   96500    299.81248    251.38341   -3046.1138   -2600.1655    652.79104    12338.782 
   96550    310.12781    251.73419   -3057.8064   -2596.5147    275.72509    12342.631 
   96600    297.44964    251.24992    -3041.664   -2599.2302    603.25251    12346.552 
   96650    305.31274    251.58193    -3052.731   -2598.6014     242.0289    12350.641 
   96700    306.79212    251.52519   -3050.8397   -2594.5097    180.07889     12354.77 
   96750    298.88489    251.37552   -3045.8506    -2601.282    371.80282    12358.881 
   96800    295.36004    251.16887   -3038.9624   -2599.6367    554.49405    12363.081 
   96850    303.05599    251.44023   -3048.0078    -2597.235    190.39615    12367.449 
   96900     306.5614    251.67655   -3055.8852   -2599.8983   -152.25299    12371.819 
   96950    316.77509    252.00365   -3066.7884   -2595.6095   -530.11992    12375.961 
   97000    306.34563    251.59199   -3053.0665   -2597.4006   -201.08631     12379.71 
   97050     300.0611    251.42079   -3047.3596   -2601.0415   -39.782176    12383.196 
   97100    288.68768    251.03628   -3034.5427   -2605.1416    267.64181    12386.557 
   97150    298.93511    251.34361   -3044.7868   -2600.1435    -133.1369      12389.9 
   97200    297.40924    251.26116   -3042.0388   -2599.6651   -114.01625    12393.076 
   97250    301.72493    251.46806   -3048.9353   -2600.1423   -190.85549    12396.047 
   97300    300.18646    251.41669   -3047.2231   -2600.7185   -209.68994    12398.791 
   97350    294.63809    251.18791   -3039.5972   -2601.3453   -138.90808    12401.296 
   97400    300.34306    251.33952   -3044.6507   -2597.9131   -288.82773    12403.576 
   97450    298.40915    251.16972   -3038.9906   -2595.1296   -87.425766    12405.586 
   97500    294.06255     251.0911     -3036.37   -2598.9742    42.548118    12407.414 
   97550    301.12301    251.38635   -3046.2117   -2598.3141   -210.32803    12409.103 
   97600    279.84058    250.62705   -3020.9016     -2604.66    454.39719    12410.601 
   97650    286.95052    250.83426   -3027.8088   -2600.9916    323.54003    12412.172 
   97700    294.46564    251.11669    -3037.223   -2599.2276    99.683716    12413.793 
   97750    296.77289     251.1477   -3038.2567   -2596.8295   -108.17741    12415.334 
   97800    302.43509      251.295   -3043.1667   -2593.3174   -334.93372    12416.673 
   97850    304.62827    251.38357   -3046.1189   -2593.0075   -360.91806    12417.694 
   97900    293.57113    251.02458   -3034.1527   -2597.4879     61.40222    12418.402 
   97950    284.28551    250.79842   -3026.6139   -2603.7607    382.42736    12418.996 
   98000    292.44786    250.95619    -3031.873    -2596.879    158.87136    12419.621 
   98050    299.12598    251.09166   -3036.3888   -2591.4616   -38.782734    12420.213 
   98100    302.79966    251.23142   -3041.0473   -2590.6557   -92.659651    12420.647 
   98150    285.07373    250.59227   -3019.7425   -2595.7169    468.94174     12420.92 
   98200    302.36406    251.12279   -3037.4263   -2587.6827   -143.89434    12421.245 
   98250    308.92232    251.36942   -3045.6472   -2586.1487   -419.36505    12421.376 
   98300    311.53537     251.3983     -3046.61   -2583.2248    -403.3706    12421.114 
   98350    297.91804    250.86178   -3028.7259   -2585.5953    148.53927    12420.501 
   98400    304.06929    251.12609   -3037.5364   -2585.2564    48.437841     12419.77 
   98450    302.46757    251.04493    -3034.831   -2584.9334      101.637    12418.937 
   98500    319.46743     251.6784   -3055.9468   -2580.7632   -457.52098    12417.949 
   98550    310.04432    251.29008   -3043.0025   -2581.8351   -75.996073    12416.596 
   98600    312.54011    251.34913    -3044.971   -2580.0913    -87.04835    12415.013 
   98650    311.46802    251.31147   -3043.7157   -2580.4306   -54.024573    12413.221 
   98700    317.12983    251.49209   -3049.7362   -2578.0296   -181.38984    12411.219 
   98750    307.84013    251.10366   -3036.7887   -2578.8998    196.63828     12408.98 
   98800    296.65917    250.66592   -3022.1974   -2580.9394    566.16083    12406.684 
   98850    302.97104    250.85232   -3028.4108   -2577.7643    368.72134    12404.495 
   98900    299.62527    250.77272   -3025.7573   -2580.0875    471.22954    12402.368 
   98950    308.06095    251.10445   -3036.8149   -2578.5976    233.78436    12400.313 
   99000    298.77064    250.73519   -3024.5063   -2580.1076    550.69149    12398.246 
   99050    305.90565    256.01891   -3033.9638   -2578.9523     260.0843    12396.286 
   99100    313.51084    256.34025   -3044.6749   -2578.3513    11.352039    12394.316 
   99150    289.86808    255.32712    -3010.904   -2579.7472     894.3895    12392.288 
   99200    299.75794    255.73754   -3024.5847   -2578.7175    679.19842    12390.538 
   99250    295.22847    255.54284   -3018.0946   -2578.9646    908.23343    12389.058 
   99300    310.73617    256.09292   -3036.4305    -2574.234    533.91817    12387.895 
   99350    303.33823    255.76297   -3025.4323   -2574.2396    773.83264    12386.939 
   99400    313.31199    256.16926   -3038.9753   -2572.9475    427.68106    12386.222 
   99450    318.10362    256.30437   -3043.4791   -2570.3241    336.32988      12385.6 
   99500    304.90947    255.81966   -3027.3221   -2573.7924    773.02953    12385.059 
   99550    312.28217    256.12652   -3037.5505   -2573.0545    458.49752    12384.759 
   99600    311.84108    256.08516   -3036.1721   -2572.3322    448.02106    12384.607 
   99650     316.8487    256.26434   -3042.1446   -2570.8562    310.40282     12384.56 
   99700    310.62266    255.98212   -3032.7374   -2570.7098    571.74037     12384.57 
   99750    305.96477    255.78502   -3026.1672   -2571.0678    775.91605     12384.76 
   99800    320.91408    256.32317   -3044.1056   -2566.7702    261.23502    12385.207 
   99850    321.63977    256.23512   -3041.1706   -2562.7558    195.33119      12385.7 
   99900    324.93627    256.31609   -3043.8697   -2560.5516    57.867549    12386.142 
   99950    307.55335    255.70043   -3023.3475   -2565.8852    603.38714    12386.519 
  100000    307.33822    255.73692   -3024.5641   -2567.4218    655.04119     12387.05 
Loop time of 26.8323 on 1 procs for 100000 steps with 500 atoms

Performance: 322.000 ns/day, 0.075 hours/ns, 3726.858 timesteps/s
99.8% CPU use with 1 MPI tasks x 1 OpenMP threads

MPI task timing breakdown:
Section |  min time  |  avg time  |  max time  |%varavg| %total
---------------------------------------------------------------
Pair    | 21.675     | 21.675     | 21.675     |   0.0 | 80.78
Bond    | 0.0069687  | 0.0069687  | 0.0069687  |   0.0 |  0.03
Neigh   | 0.54505    | 0.54505    | 0.54505    |   0.0 |  2.03
Comm    | 0.77777    | 0.77777    | 0.77777    |   0.0 |  2.90
Output  | 0.018349   | 0.018349   | 0.018349   |   0.0 |  0.07
Modify  | 2.7404     | 2.7404     | 2.7404     |   0.0 | 10.21
Other   |            | 1.068      |            |       |  3.98

Nlocal:    500 ave 500 max 500 min
Histogram: 1 0 0 0 0 0 0 0 0 0
Nghost:    1555 ave 1555 max 1555 min
Histogram: 1 0 0 0 0 0 0 0 0 0
Neighs:    14351 ave 14351 max 14351 min
Histogram: 1 0 0 0 0 0 0 0 0 0

Total # of neighbors = 14351
Ave neighs/atom = 28.702
Ave special neighs/atom = 0
Neighbor list builds = 659
Dangerous builds = 0

write_data      ${walker}/final_restart_file
write_data      12/final_restart_file

quit
