LAMMPS (19 May 2017)
Processor partition = 4
  using 1 OpenMP thread(s) per MPI task
# gREM variables
variable        lambda world 1000 1005 1010 1015 1020 1025 1030 1035 1040 1045 1050 1055 1060 1065 1070 1075
variable        walker world 0 1 2 3 4 5 6 7 8 9 10 11 12 13 14 15
variable        replica world 4 9 1 7 0 12 3 5 8 13 14 6 15 11 2 10

variable        T0 equal 300.0
variable        press equal 0.0

units           real
atom_style      full
pair_style      lj/cut 5.0

# LJ particles
read_data       ${walker}/restart_file
read_data       4/restart_file
  orthogonal box = (1.0853 1.0853 1.0853) to (23.9147 23.9147 23.9147)
  1 by 1 by 1 MPI processor grid
  reading atoms ...
  500 atoms
  reading velocities ...
  500 velocities
  0 = max # of 1-2 neighbors
  0 = max # of 1-3 neighbors
  0 = max # of 1-4 neighbors
  1 = max # of special neighbors

#dump            dump all xyz 1000 ${walker}/dump.xyz

fix             fxnpt all npt temp ${T0} ${T0} 1000.0 iso ${press} ${press} 10000.0
fix             fxnpt all npt temp 300 ${T0} 1000.0 iso ${press} ${press} 10000.0
fix             fxnpt all npt temp 300 300 1000.0 iso ${press} ${press} 10000.0
fix             fxnpt all npt temp 300 300 1000.0 iso 0 ${press} 10000.0
fix             fxnpt all npt temp 300 300 1000.0 iso 0 0 10000.0
fix             fxgREM all grem ${lambda} -.03 -30000 fxnpt
fix             fxgREM all grem 1020 -.03 -30000 fxnpt
thermo_modify   press fxgREM_press

thermo          50
thermo_style    custom step temp f_fxgREM pe etotal press vol
WARNING: New thermo_style command, previous thermo_modify settings will be lost (../output.cpp:705)
timestep        1.0

temper/grem     100000 1000 ${lambda} fxgREM fxnpt 10294 98392 ${walker}
temper/grem     100000 1000 1020 fxgREM fxnpt 10294 98392 ${walker}
temper/grem     100000 1000 1020 fxgREM fxnpt 10294 98392 4
Neighbor list info ...
  update every 1 steps, delay 10 steps, check yes
  max neighbors/atom: 2000, page size: 100000
  master list distance cutoff = 7
  ghost atom cutoff = 7
  binsize = 3.5, bins = 7 7 7
  1 neighbor lists, perpetual/occasional/extra = 1 0 0
  (1) pair lj/cut, perpetual
      attributes: half, newton on
      pair build: half/bin/newton
      stencil: half/bin/3d/newton
      bin: standard
Per MPI rank memory allocation (min/avg/max) = 5.728 | 5.728 | 5.728 Mbytes
Step Temp f_fxgREM PotEng TotEng Press Volume 
       0    310.80384    216.73212   -3224.4041    -2762.107   -85.762807    11898.261 
      50    281.04663    215.78276   -3192.7586   -2774.7231    806.84793    11898.195 
     100    288.52685     216.0685   -3202.2835   -2773.1217     580.9222    11898.236 
     150    283.11642    215.89442   -3196.4805   -2775.3663    688.50513    11898.375 
     200    283.60013    215.87975   -3195.9916   -2774.1579    741.56101    11898.626 
     250    287.60543    216.05061   -3201.6869   -2773.8956    688.84105    11899.014 
     300    283.38282     215.8327   -3194.4232   -2772.9127    764.85617    11899.537 
     350    280.09595    215.74891   -3191.6303   -2775.0088    824.97455    11900.218 
     400    301.00831    216.34082   -3211.3605   -2763.6335    285.61362    11901.048 
     450     293.2558    216.06128   -3202.0427    -2765.847    505.13504    11901.831 
     500    284.64928     215.7776   -3192.5867   -2769.1925     831.5099    11902.636 
     550    281.91776    215.64528    -3188.176   -2768.8447    941.62684    11903.635 
     600    289.34371    216.02073   -3200.6911   -2770.3142    599.81439    11904.855 
     650    271.30834    215.26609   -3175.5364   -2771.9858    1166.9899    11906.216 
     700    291.94245    215.84967   -3194.9891   -2760.7468    640.57699    11907.894 
     750     312.4256    216.40908   -3213.6359   -2748.9265    40.943121    11909.662 
     800    299.11805     216.0873   -3202.9099   -2757.9945    367.41545    11911.244 
     850    289.01223    215.70501   -3190.1668   -2760.2831    748.24115    11912.763 
     900    294.24711    215.83369   -3194.4563   -2756.7861    584.16217    11914.416 
     950    291.30023    215.73654    -3191.218    -2757.931    589.46124    11916.144 
    1000    283.63632    215.45674   -3181.8913   -2760.0038    895.11342    11917.956 
    1050    298.54436    215.88163   -3196.0543   -2751.9922    578.67921    11919.959 
    1100     286.3404    215.51491   -3183.8302   -2757.9206    898.75724    11922.066 
    1150     295.2197    215.70112   -3190.0374   -2750.9205    652.27085    11924.371 
    1200    302.54435     215.9225   -3197.4167   -2747.4049    409.25007    11926.789 
    1250    299.75201    215.79157   -3193.0522   -2747.1938    496.54996    11929.193 
    1300    289.02802    215.29056   -3176.3519   -2746.4446    925.79509    11931.616 
    1350    284.63787    215.02241   -3167.4136   -2744.0363    1133.2198    11934.281 
    1400    299.00944     215.4354     -3181.18   -2736.4262    793.43026    11937.273 
    1450     285.2146    215.02369   -3167.4564   -2743.2213    1188.2223    11940.487 
    1500    290.81557    215.15921   -3171.9735   -2739.4074    1005.4596    11944.065 
    1550    306.07279    215.53956   -3184.6519   -2729.3918    590.57951    11947.915 
    1600    291.01742    215.11831   -3170.6103    -2737.744    1054.5971     11951.87 
    1650    282.44335    214.80315    -3160.105   -2739.9919    1249.7192     11956.14 
    1700    309.86751    215.59094   -3186.3646   -2725.4601    334.38025    11960.763 
    1750    307.18751    215.44043   -3181.3477   -2724.4296    345.51264    11965.357 
    1800    287.85718    214.90897   -3163.6322   -2735.4665    846.99434    11969.915 
    1850    297.36751    215.14465   -3171.4885   -2729.1769    525.38884    11974.627 
    1900    295.61084    215.07226   -3169.0754   -2729.3766     551.9387    11979.392 
    1950    286.54043    214.82006   -3160.6687   -2734.4615    784.21896    11984.229 
    2000    308.22409    215.42126   -3180.7087   -2722.2487     204.3367    11989.185 
    2050     299.9611    215.08575   -3169.5251   -2723.3557    376.33507    11994.049 
    2100    304.08864    215.24794   -3174.9314   -2722.6226     189.2881    11998.828 
    2150    301.42096     215.1119   -3170.3967   -2722.0559    215.43156    12003.477 
    2200    292.18551    214.79129   -3159.7097   -2725.1059    390.42835    12008.009 
    2250    302.37518    215.15141   -3171.7137   -2721.9535    101.69362    12012.463 
    2300    303.07015    215.16904   -3172.3014   -2721.5076    61.443715    12016.739 
    2350     303.4734    215.19443   -3173.1478   -2721.7541   -38.376154    12020.787 
    2400    294.60885    214.90896   -3163.6319   -2725.4236    192.11433    12024.583 
    2450    303.49391    215.16009    -3172.003   -2720.5788    12.404639    12028.207 
    2500    297.35625     215.0535   -3168.4502   -2726.1553    123.99275    12031.603 
    2550    305.40998    215.27925    -3175.975   -2721.7009   -113.89307     12034.79 
    2600    301.84247    215.04298   -3168.0992   -2719.1314    13.589773    12037.691 
    2650    304.57763    215.06473   -3168.8242    -2715.788   -106.24248    12040.325 
    2700    312.39049    215.42338   -3180.7792    -2716.122   -443.77309    12042.638 
    2750    305.61687    215.28917   -3176.3056   -2721.7237   -283.05714    12044.484 
    2800    305.03706    215.24446   -3174.8154   -2721.0959    -191.0103     12045.92 
    2850    296.26336    214.85945   -3161.9817   -2721.3124    62.371781    12047.001 
    2900    290.31252    214.71074   -3157.0248   -2725.2069    180.37385     12047.86 
    2950    300.02303    214.96272   -3165.4238   -2719.1623   -50.348857     12048.54 
    3000    293.30825    214.71338   -3157.1127   -2720.8389    192.60967    12048.955 
    3050    287.99133    219.62248   -3154.0825   -2725.7173    334.05916    12049.225 
    3100    284.65372     219.3932     -3146.44   -2723.0391    430.46701    12049.449 
    3150    301.36775    219.91928    -3163.976   -2715.7143   -128.52205    12049.633 
    3200      297.905    219.75421   -3158.4738   -2715.3627   -5.6835763    12049.551 
    3250     290.0244    219.58693   -3152.8978   -2721.5085    253.81448    12049.232 
    3300    288.94847    219.57737   -3152.5791   -2722.7901    360.85098    12048.802 
    3350    286.47977    219.40255   -3146.7516   -2720.6346    510.43361    12048.336 
    3400    300.71095    219.88535   -3162.8449   -2715.5602    40.400696    12047.877 
    3450    305.07179    220.02969   -3167.6564   -2713.8852   -147.35989    12047.212 
    3500    302.22445      219.935      -3164.5    -2714.964   -5.0295961    12046.239 
    3550    302.27124    219.93566   -3164.5218   -2714.9163    46.729565    12045.006 
    3600    286.21585    219.41804   -3147.2679   -2721.5435    532.73118    12043.591 
    3650    280.71022    219.21985   -3140.6616   -2723.1265    648.14967    12042.219 
    3700    313.80856    220.16947   -3172.3157   -2705.5493   -268.72397    12040.893 
    3750    307.43416    219.95967   -3165.3224   -2708.0374   -56.250582    12039.249 
    3800    303.39244    219.82776   -3160.9252    -2709.652    108.10014    12037.317 
    3850    294.11805    219.54513   -3151.5044   -2714.0261    411.03293    12035.213 
    3900    292.34926    219.56596   -3152.1986   -2717.3513    554.83827    12033.067 
    3950    295.37038    219.66708   -3155.5693   -2716.2282    555.03024    12030.962 
    4000      295.346    219.67527   -3155.8423   -2716.5375    505.30636    12028.915 
    4050    295.91023    219.57901   -3152.6336   -2712.4895    604.83865    12026.912 
    4100    308.45011    219.90075   -3163.3583   -2704.5622    430.92175    12024.953 
    4150    295.97829    219.48027   -3149.3423    -2709.097    841.50819    12023.018 
    4200    296.07595    219.42651   -3147.5504   -2707.1599    886.99987    12021.271 
    4250    306.99181    219.72095   -3157.3649   -2700.7378    631.06592    12019.743 
    4300    319.07886    220.11301   -3170.4338   -2695.8281    283.75445    12018.293 
    4350    304.01206    219.61554   -3153.8514   -2701.6565     684.1029    12016.778 
    4400    298.67155    219.50038   -3150.0127   -2705.7614    789.12437    12015.367 
    4450    309.18012    219.88651   -3162.8836   -2703.0016    451.93653    12014.114 
    4500    316.30503    220.00897   -3166.9656   -2696.4858    392.90439    12012.863 
    4550    307.12035    219.69833   -3156.6112   -2699.7929    839.88752    12011.597 
    4600    298.05172    219.38906   -3146.3022   -2702.9728    1205.9578    12010.518 
    4650    291.06369    219.15555   -3138.5183   -2705.5831    1416.2567    12009.831 
    4700     298.7892    219.45134    -3148.378   -2703.9517    1134.0085    12009.637 
    4750     314.6805     220.0484   -3168.2801   -2700.2167    579.27226    12009.785 
    4800    317.79774    220.10286   -3170.0954   -2697.3953    487.48781    12010.006 
    4850    291.15444    219.17143   -3139.0478   -2705.9776      1368.01    12010.302 
    4900    294.06971    219.18126   -3139.3754    -2701.969    1349.5134    12011.047 
    4950    301.81623    219.31427    -3143.809   -2694.8803     1031.415    12012.269 
    5000    310.45803    219.66108   -3155.3692   -2693.5864    669.07526    12013.789 
    5050    308.51376    214.57312   -3152.4374   -2693.5465    753.66907    12015.445 
    5100    313.98174    214.74964   -3158.3214   -2691.2973    642.77213    12017.239 
    5150    318.68602    214.87067   -3162.3557   -2688.3344    564.78607    12019.106 
    5200    316.35977      214.789   -3159.6332    -2689.072    519.91186    12020.998 
    5250    318.34795    214.77561   -3159.1871   -2685.6686    432.45585    12022.901 
    5300    315.91197    214.65053   -3155.0176   -2685.1225    490.24045     12024.79 
    5350    320.18462    214.75307   -3158.4356   -2682.1852    372.43758    12026.658 
    5400    312.02421    214.56784   -3152.2615   -2688.1491    654.21511    12028.479 
    5450    323.35743    214.88448    -3162.816   -2681.8463    396.17204    12030.349 
    5500    302.27191    214.28306   -3142.7688   -2693.1622    987.85788    12032.234 
    5550    309.43733    214.50149   -3150.0496    -2689.785     844.5154    12034.334 
    5600    317.69655     214.7162   -3157.2065    -2684.657    618.38524    12036.615 
    5650    301.87344    214.12926    -3137.642   -2688.6281    1026.8883    12039.006 
    5700    308.82004    214.41119   -3147.0396   -2687.6932    741.55205    12041.653 
    5750    316.38368    214.67399   -3155.7997    -2685.203    523.22023    12044.452 
    5800    323.71119    214.82955   -3160.9849   -2679.4891    269.31961    12047.256 
    5850    317.66959    214.69204   -3156.4014    -2683.892     324.1675    12049.963 
    5900    311.82057     214.4971   -3149.9033   -2686.0938    405.21833    12052.586 
    5950    314.08011    214.51689   -3150.5631   -2683.3927    385.16431    12055.149 
    6000     307.4818     214.3793   -3145.9766   -2688.6207    533.59523    12057.675 
    6050    318.51666    209.81895   -3160.6315   -2686.8621    139.73779    12060.179 
    6100    303.87626    209.39085   -3146.3618   -2694.3689    520.41677    12062.527 
    6150    307.42268    209.49631    -3149.877   -2692.6091    409.06833    12064.862 
    6200    322.70401    209.99547   -3166.5157   -2686.5179   -114.07784     12067.13 
    6250    317.74982    209.83762   -3161.2538   -2688.6251   -76.481855    12069.088 
    6300    306.93506    209.55687   -3151.8956   -2695.3529    173.95576    12070.725 
    6350    308.42166    209.61093   -3153.6975   -2694.9436     34.03789    12072.173 
    6400    325.99974    210.18145   -3172.7152   -2687.8152   -578.57379    12073.332 
    6450    302.56611    209.48053    -3149.351   -2699.3068    -65.25625    12073.954 
    6500    297.53589    209.38168   -3146.0561    -2703.494    128.97663    12074.236 
    6550    305.12728    209.63813   -3154.6043   -2700.7506    35.245321    12074.307 
    6600    316.27129    210.05639   -3168.5463   -2698.1168   -275.07113    12074.116 
    6650    305.95207    209.82382   -3160.7939   -2705.7134   -33.054955    12073.523 
    6700    312.99855    210.03871   -3167.9571   -2702.3954   -237.95933    12072.591 
    6750    297.21324    209.62761   -3154.2536   -2712.1714    130.83215    12071.302 
    6800    300.03118    209.72686   -3157.5619   -2711.2882    41.608162    12069.775 
    6850    307.60972    210.06941   -3168.9804   -2711.4343   -277.26918    12067.975 
    6900    298.21664    209.95909   -3165.3031   -2721.7284   -103.95673    12065.776 
    6950    307.37846    210.22095   -3174.0317   -2716.8296   -332.47529    12063.216 
    7000    293.81232    209.90863   -3163.6211   -2726.5975    -60.52031    12060.233 
    7050    305.30865    210.25756   -3175.2521   -2721.1286   -373.09132    12056.895 
    7100    295.49988    209.97119   -3165.7062   -2726.1726     1.809237    12053.116 
    7150    291.99408    209.91913   -3163.9711    -2729.652    129.84862     12049.05 
    7200    302.16573    210.26563   -3175.5211   -2726.0725   -161.69008    12044.754 
    7250    300.75732     210.2401     -3174.67   -2727.3163   -189.78191    12040.109 
    7300     301.9922    210.41107   -3180.3689   -2731.1784   -320.16276    12035.073 
    7350    286.30512    209.90793   -3163.5977   -2737.7406    179.14473    12029.612 
    7400    287.09429    209.99684   -3166.5614   -2739.5304    256.57214     12023.96 
    7450    302.58876    210.50131   -3183.3769    -2733.299   -137.25691    12018.152 
    7500    296.15205    210.35465   -3178.4884   -2737.9847    56.638699    12012.021 
    7550    301.33496    210.59411   -3186.4705   -2738.2576    48.488749    12005.606 
    7600    301.98707    210.64737   -3188.2456   -2739.0628    83.348835    11998.942 
    7650    293.28737    210.34352   -3178.1174   -2741.8746     267.2616    11992.063 
    7700    305.12382    210.66557   -3188.8522   -2735.0036   -60.062887    11985.017 
    7750    310.52284    210.92579   -3197.5265   -2735.6473   -179.82265    11977.681 
    7800    311.44333    210.86987   -3195.6622   -2732.4138   -55.340617    11969.967 
    7850    296.64087     210.3994   -3179.9801   -2738.7493    442.60637    11961.946 
    7900    296.79935    210.55686   -3185.2288   -2743.7623    434.05965    11953.846 
    7950    305.57081    210.78711   -3192.9038   -2738.3904    345.38882    11945.696 
    8000    292.77956    210.43575   -3181.1915   -2745.7041    758.73446    11937.473 
    8050    297.71125    205.71625   -3190.5416   -2747.7186    638.24444    11929.323 
    8100    299.81424    205.82753   -3194.2509   -2748.2999    679.70037    11921.221 
    8150    300.45932    205.84672   -3194.8907   -2747.9802    745.75403    11913.165 
    8200    312.80044    206.17708   -3205.9028   -2740.6359    389.67437    11905.182 
    8250    312.28268    206.16814   -3205.6048    -2741.108    434.97625    11897.128 
    8300    294.20814    205.67595   -3189.1984   -2751.5861    1043.3098    11889.024 
    8350    303.93307    206.02138   -3200.7126   -2748.6352    862.41803    11881.119 
    8400    305.64726    206.03194   -3201.0646   -2746.4374    873.62623    11873.393 
    8450    300.04279    205.95667   -3198.5558   -2752.2649    1162.2638     11865.84 
    8500     314.4424      206.381   -3212.7002   -2744.9909    860.12795    11858.548 
    8550    306.98087    206.16466   -3205.4887   -2748.8779    1056.0806    11851.435 
    8600    317.98969    206.47713   -3215.9042   -2742.9186    910.30411    11844.541 
    8650    309.56814    206.26664   -3208.8879   -2748.4287    1142.5325    11837.843 
    8700    307.47475     206.2634   -3208.7799   -2751.4346    1229.1412    11831.414 
    8750    309.20612    206.36984    -3212.328   -2752.4073    1303.8862    11825.324 
    8800    298.47975    206.07097   -3202.3656   -2758.3996    1600.0413    11819.643 
    8850    305.21881    206.33565   -3211.1883   -2757.1985     1470.882    11814.458 
    8900    289.09785    205.85548   -3195.1826   -2765.1715    2039.5799    11809.773 
    8950    303.31145    206.33067   -3211.0222   -2759.8694    1694.8373    11805.803 
    9000    302.77388    206.38782   -3212.9275   -2762.5743    1684.2203     11802.44 
    9050    319.20204    201.85523   -3228.5075   -2753.7187    1281.0802    11799.611 
    9100    305.83105    201.57051   -3219.0169   -2764.1163    1494.0304    11797.184 
    9150    302.40032    201.51658   -3217.2192   -2767.4217    1509.2749    11795.193 
    9200     309.6243    201.73592   -3224.5307    -2763.988    1355.0545    11793.661 
    9250    305.98924     201.5984   -3219.9468    -2764.811    1507.5383    11792.547 
    9300    297.38508     201.3321   -3211.0702   -2768.7324      1703.96    11791.918 
    9350     315.0191    201.91574   -3230.5246   -2761.9575    1233.5318    11791.819 
    9400    309.71788    201.76613   -3225.5378   -2764.8559    1307.4762    11792.095 
    9450    303.04819    201.59966   -3219.9888   -2769.2276    1390.7078    11792.733 
    9500    298.07089     201.4396   -3214.6533   -2771.2955    1495.6059    11793.792 
    9550    293.19976     201.3487   -3211.6234   -2775.5109    1586.8006    11795.334 
    9600    296.74453    201.48855   -3216.2851   -2774.9001    1416.4085    11797.386 
    9650    295.00629    201.44905   -3214.9684   -2776.1689    1432.5642     11799.89 
    9700    296.08632    201.58301   -3219.4338   -2779.0279    1347.9176    11802.852 
    9750    308.57867    201.94026   -3231.3421   -2772.3547    976.44619    11806.216 
    9800    299.75913    201.66188   -3222.0627   -2776.1937    1193.6679    11809.832 
    9850    305.39703    201.94675   -3231.5584   -2777.3035     950.0265    11813.753 
    9900    284.80595    201.37265   -3212.4217   -2788.7945    1384.5009    11817.949 
    9950    294.95483    201.63102   -3221.0338   -2782.3109    1032.2606    11822.533 
   10000    299.38485    201.81097   -3227.0325   -2781.7202    713.18955    11827.372 
   10050    294.51676     201.6276     -3220.92   -2782.8486    824.80509    11832.335 
   10100    296.29075    201.58314   -3219.4381    -2778.728    812.62935    11837.447 
   10150    285.64322    201.33048   -3211.0159   -2786.1433    878.99417     11842.71 
   10200    300.65955     201.7774   -3225.9132    -2778.705    351.79118    11848.124 
   10250    289.29698    201.57398   -3219.1326   -2788.8253    623.87488    11853.507 
   10300     300.2646    201.92072   -3230.6908   -2784.0699    339.70886    11858.916 
   10350    299.59215    201.84632   -3228.2107   -2782.5901    306.47873    11864.242 
   10400    288.86532    201.49354   -3216.4512   -2786.7859    472.85736    11869.466 
   10450    300.85047    201.91864   -3230.6212   -2783.1289   -34.982237    11874.632 
   10500    291.76866    201.72623   -3224.2077   -2790.2239    111.66152     11879.54 
   10550    272.18018    201.04114   -3201.3714    -2796.524    683.46486    11884.274 
   10600    302.22578     201.8914   -3229.7133   -2780.1753   -198.54912    11889.014 
   10650    289.52891    201.52194   -3217.3979   -2786.7456   -4.5706196    11893.447 
   10700    281.71419    201.33418   -3211.1394   -2792.1109    143.95379    11897.614 
   10750    284.01835    201.36391   -3212.1302   -2789.6744    93.850903    11901.586 
   10800    284.86039    201.37973   -3212.6576   -2788.9493    90.732933    11905.337 
   10850    294.55512    201.61123   -3220.3743   -2782.2459   -134.14922    11908.858 
   10900    286.62999    201.50696   -3216.8987   -2790.5583    22.646722    11912.057 
   10950    279.46621    201.22768   -3207.5892   -2791.9044    243.99064    11914.993 
   11000    276.20939    201.10309   -3203.4365    -2792.596    237.49521    11917.795 
   11050    297.83738    206.73977   -3224.6591   -2781.6485     -427.009    11920.418 
   11100    277.52657     206.0136   -3200.4534   -2787.6536    138.95438    11922.635 
   11150    292.66284    206.52752    -3217.584   -2782.2702   -279.75567    11924.587 
   11200    285.60218    206.32388   -3210.7961   -2785.9845   -91.922215    11926.172 
   11250    280.69094     206.2328   -3207.7599   -2790.2534    87.391585    11927.437 
   11300    280.82915    206.18497   -3206.1656   -2788.4535    191.69528    11928.475 
   11350    281.69745    206.11016   -3203.6721   -2784.6684    284.47423    11929.372 
   11400     292.8426    206.37204   -3212.4013   -2776.8202   -26.349821    11930.137 
   11450    291.77004    206.29415   -3209.8051   -2775.8192   -76.278799    11930.641 
   11500     294.5271    206.46404   -3215.4679   -2777.3812   -150.67574    11930.824 
   11550      287.248    206.09387    -3203.129   -2775.8693    97.719161    11930.668 
   11600    286.72731     206.0851   -3202.8366   -2776.3515    35.187029    11930.279 
   11650      303.083    206.64466   -3221.4887   -2770.6757    -389.9597    11929.614 
   11700    284.25632    206.02729   -3200.9096   -2778.0999    271.68882    11928.541 
   11750    297.22225    206.41333   -3213.7778   -2771.6822   -2.4874386    11927.292 
   11800    291.22888    206.15463   -3205.1545   -2771.9736    204.37565    11925.803 
   11850     297.9245    206.41275   -3213.7584   -2770.6183     117.1688    11924.114 
   11900    288.43154    206.14699   -3204.8996   -2775.8796    424.88709    11922.239 
   11950    287.66083    206.11428   -3203.8095   -2775.9358    502.26034    11920.285 
   12000    293.93277    206.13142   -3204.3808   -2767.1781    487.46108    11918.319 
   12050    309.44379    201.63515   -3221.1715   -2760.8973    146.93293    11916.294 
   12100    299.21948    201.29514   -3209.8381   -2764.7719    490.28309    11914.083 
   12150    290.61444    200.98608   -3199.5361   -2767.2691    755.60563    11911.821 
   12200    294.36121    201.05859   -3201.9531   -2764.1131    657.45351     11909.64 
   12250    304.00302     201.3399   -3211.3299   -2759.1485    456.86596    11907.479 
   12300    280.63475    200.68643   -3189.5478   -2772.1249    1006.0466    11905.314 
   12350    304.26711    201.36659   -3212.2198   -2759.6455    385.78062    11903.318 
   12400    304.65608    201.34875   -3211.6248    -2758.472    384.14815    11901.254 
   12450    298.84808    201.10791   -3203.5971   -2759.0832    632.37914    11899.086 
   12500    295.43381    201.06569   -3202.1898   -2762.7544    715.36023    11896.942 
   12550    297.78178     201.2553     -3208.51   -2765.5822    601.21044    11894.878 
   12600    300.00732    201.31918   -3210.6394   -2764.4013    573.12439     11892.84 
   12650    302.91185    201.37294   -3212.4314    -2761.873    499.81734    11890.775 
   12700    293.67847    201.13126   -3204.3752   -2767.5507    715.59115    11888.692 
   12750     297.7438    201.18092   -3206.0306   -2763.1593    674.50929    11886.669 
   12800    310.15491    201.51235   -3217.0784   -2755.7465    429.85496    11884.675 
   12850    304.01406    201.38866   -3212.9555   -2760.7576    639.83906    11882.613 
   12900    291.60195    200.94398   -3198.1325   -2764.3967    1018.5523    11880.601 
   12950    304.22699    201.31479   -3210.4931   -2757.9785    679.98808    11878.793 
   13000    311.85952    201.47023   -3215.6744    -2751.807    541.95164    11877.049 
   13050    296.92878    201.05399   -3201.7997   -2760.1407    998.59993    11875.302 
   13100    318.23336    201.70779   -3223.5929   -2750.2449    510.46118    11873.706 
   13150    313.19158    201.59021   -3219.6735   -2753.8248    652.64626    11872.114 
   13200    308.70021     201.4638   -3215.4599   -2756.2917    804.81575    11870.537 
   13250    296.92655    201.01785    -3200.595   -2758.9392    1160.8742    11869.091 
   13300    305.11765    201.29168   -3209.7226   -2755.8832    1005.1488    11867.911 
   13350     304.4146    201.28801   -3209.6004   -2756.8067    1059.4256    11866.965 
   13400    299.86041    201.17779   -3205.9263   -2759.9067    1173.4022     11866.27 
   13450    310.16676    201.45741   -3215.2471   -2753.8976    923.39117    11865.866 
   13500    301.99884    201.18898   -3206.2995   -2757.0991    1141.9797    11865.688 
   13550    313.39032    201.59392   -3219.7972   -2753.6528    753.88172     11865.76 
   13600    291.92041    201.02775    -3200.925   -2766.7155    1205.5907    11865.985 
   13650    305.23133     201.4707   -3215.6901   -2761.6817    777.62495    11866.497 
   13700    311.35241    201.66815   -3222.2718   -2759.1587    667.69337    11867.131 
   13750    291.73622    201.04029   -3201.3431   -2767.4076    1143.8105     11867.86 
   13800    307.00691    201.44089   -3214.6963   -2758.0468    690.30532    11868.841 
   13850    300.74758    201.20921   -3206.9738   -2759.6346    907.06516    11869.934 
   13900    309.62922    201.53024   -3217.6747   -2757.1247    648.85037    11871.175 
   13950    304.86691     201.5069   -3216.8966   -2763.4302    665.31525    11872.479 
   14000    297.50334     201.2364   -3207.8799   -2765.3662     820.9362    11873.851 
   14050    295.66332    206.10701   -3203.5669   -2763.7901     959.3136    11875.359 
   14100    288.80414    205.89413   -3196.4711   -2766.8969    1163.9181    11877.112 
   14150    289.97542    206.01655   -3200.5516   -2769.2351    1001.1229    11879.193 
   14200    299.00652    206.21713   -3207.2376   -2762.4881    757.00034    11881.534 
   14250    310.85101    206.61894   -3220.6312   -2758.2639    373.93214    11883.994 
   14300    301.22005    206.36269   -3212.0895   -2764.0475     603.9806    11886.411 
   14350     293.3119    206.13252   -3204.4174   -2768.1381    828.99531    11888.885 
   14400    307.68066    206.62898   -3220.9659   -2763.3142    414.34617    11891.509 
   14450    301.79737    206.39788   -3213.2626   -2764.3619    568.13495     11894.13 
   14500    295.84388    206.16955   -3205.6515   -2765.6062    717.03823    11896.782 
   14550    289.82017    206.00996    -3200.332   -2769.2465    774.61109    11899.544 
   14600    299.75631     206.3666   -3212.2199   -2766.3551    415.92988    11902.431 
   14650    287.52584    206.06289   -3202.0963   -2774.4234    645.47146    11905.331 
   14700    298.32234    206.37384   -3212.4613   -2768.7294    383.45083    11908.289 
   14750    292.21367    206.12616   -3204.2055   -2769.5598    518.66431    11911.241 
   14800    296.21089    206.26306   -3208.7687   -2768.1774    402.03769    11914.182 
   14850    291.61673    206.07316   -3202.4388    -2768.681    573.81338    11917.098 
   14900    300.30523    206.40052   -3213.3505   -2766.6693    239.79571    11920.035 
   14950    287.48974    206.05992   -3201.9974   -2774.3782    440.62697    11922.889 
   15000    295.16566    206.24826   -3208.2753   -2769.2387    118.39769    11925.694 
   15050    292.07216    206.16477   -3205.4923   -2771.0571    129.30431     11928.34 
   15100    295.06673    206.23178   -3207.7262   -2768.8368    -23.94971    11930.805 
   15150     302.4284    206.42026   -3214.0085   -2764.1692   -298.63038    11933.003 
   15200     290.9421    206.04688   -3201.5626   -2768.8083    45.385172    11934.817 
   15250    281.50493    205.87384   -3195.7945   -2777.0773    297.39581    11936.394 
   15300    281.83324    205.86341   -3195.4469   -2776.2414    391.42446     11937.87 
   15350    290.21721    206.08158   -3202.7193   -2771.0431    219.57134    11939.287 
   15400    282.70615    205.79476   -3193.1587   -2772.6547    417.75186    11940.588 
   15450    296.84747    206.20804   -3206.9347   -2765.3966    3.0231742    11941.814 
   15500    299.92225    206.30369   -3210.1228   -2764.0112    -63.68062    11942.802 
   15550    294.18701    206.15207    -3205.069   -2767.4881    136.98307    11943.496 
   15600     297.6643    206.23005   -3207.6684   -2764.9153  0.062568068     11943.97 
   15650    299.71508    206.23104   -3207.7014   -2761.8979   -52.926507    11944.179 
   15700    286.65332    205.77927   -3192.6422   -2766.2672    281.03369    11944.108 
   15750     288.7577    205.85293   -3195.0975   -2765.5923    274.47064    11943.898 
   15800    288.97058    205.89646   -3196.5488   -2766.7269    358.32099    11943.574 
   15850    295.35397    206.12174   -3204.0581   -2764.7414     272.6053    11943.152 
   15900    291.47472    205.97034   -3199.0114   -2765.4648    431.74423    11942.616 
   15950    303.10381    206.29966   -3209.9888   -2759.1448    190.67202    11941.991 
   16000    297.80333     206.0801   -3202.6701   -2759.7102    318.86978    11941.218 
   16050    300.35581    201.10246   -3203.4152   -2756.6587    299.40816    11940.302 
   16100    295.55486    200.95909   -3198.6362   -2759.0208     420.9281    11939.237 
   16150    293.44144    200.81177   -3193.7257   -2757.2538    470.60633    11938.095 
   16200    303.18355    201.04816   -3201.6052   -2750.6427    240.96647    11936.866 
   16250    298.89275    200.93522   -3197.8408   -2753.2605    441.13959    11935.478 
   16300    299.67614    200.98136   -3199.3787   -2753.6332     443.0352    11934.019 
   16350    317.23235    201.43313   -3214.4376   -2742.5785   -17.418569    11932.455 
   16400    310.39033    201.19161    -3206.387   -2744.7049    231.24825    11930.595 
   16450    302.38681    200.85936   -3195.3121   -2745.5346     565.6618    11928.545 
   16500    316.48117    201.26715    -3208.905   -2738.1633    287.17909    11926.436 
   16550    300.01649    200.85745   -3195.2482   -2748.9964    761.68633    11924.197 
   16600     310.4834    201.17974   -3205.9913   -2744.1707     585.8084     11921.98 
   16650    312.54219    201.07435   -3202.4784   -2737.5956    590.07495    11919.761 
   16700    316.40201    201.17106   -3205.7019   -2735.0778    486.33765    11917.506 
   16750    317.96379    201.08349   -3202.7829   -2729.8358    513.83703     11915.18 
   16800    308.25861    200.74496   -3191.4988   -2732.9875    762.82035    11912.802 
   16850    308.50934    200.73029   -3191.0095   -2732.1252    838.87224    11910.447 
   16900    311.16688    200.73387   -3191.1291    -2728.292    851.99246    11908.212 
   16950    309.65384    200.65775   -3188.5916    -2728.005    961.47512    11906.103 
   17000    319.27578    201.02308   -3200.7694   -2725.8708    729.18968    11904.124 
   17050    300.37098      205.457   -3181.8999   -2735.1208    1300.7721    11902.251 
   17100    300.08115    205.39115   -3179.7051   -2733.3571    1436.6895    11900.713 
   17150    302.88266    205.45491   -3181.8305   -2731.3155    1450.9708    11899.634 
   17200    307.85354    205.62927   -3187.6424   -2729.7336    1363.7691    11899.007 
   17250    310.54425    205.64406   -3188.1354   -2726.2243    1281.8116     11898.81 
   17300    326.42689    206.14781   -3204.9271   -2719.3918    776.59755    11898.956 
   17350     306.3709    205.49935   -3183.3116   -2727.6081    1313.5681     11899.27 
   17400    318.19473    205.90004   -3196.6678   -2723.3773    1026.7943    11899.919 
   17450    307.79151    205.59495   -3186.4983   -2728.6818    1284.4204    11900.866 
   17500    302.03182    205.41437   -3180.4789   -2731.2295    1437.5152    11902.191 
   17550    307.39675    205.59399   -3186.4662   -2729.2368    1169.3382    11903.987 
   17600    321.80676    206.07187   -3202.3955   -2723.7324    670.69129    11906.107 
   17650    301.97283    205.47297   -3182.4324   -2733.2707     1242.437    11908.367 
   17700    307.51446    205.58868   -3186.2893   -2728.8849    1127.3061    11910.964 
   17750    322.94139    206.15844   -3205.2813   -2724.9304    620.99444    11913.876 
   17800    306.57547    205.61166   -3187.0552   -2731.0475      1077.08    11916.933 
   17850    305.11256    205.58232   -3186.0773   -2732.2455    1128.9757    11920.284 
   17900    304.39019    205.55309    -3185.103   -2732.3457    1056.1175    11923.969 
   17950    313.63373    205.85791   -3195.2635   -2728.7571     773.2352    11927.941 
   18000    298.57912    205.33832   -3177.9439   -2733.8301    1093.0846    11932.127 
   18050    305.53059    210.61614   -3187.2047   -2732.7511     751.5577    11936.629 
   18100    301.35267     210.5307   -3184.3566   -2736.1173    748.86982    11941.323 
   18150    296.54163    210.37089   -3179.0298   -2737.9466    748.61694    11946.213 
   18200    302.38352    210.54852   -3184.9507   -2735.1781     465.1838    11951.286 
   18250    302.95904    210.60945   -3186.9817   -2736.3531    428.98283    11956.408 
   18300    296.90812    210.45607   -3181.8691   -2740.2408    546.02798    11961.575 
   18350    309.86929    210.97401   -3199.1336   -2738.2265    34.939328    11966.784 
   18400    303.90511    210.77031   -3192.3438    -2740.308    153.51983    11971.858 
   18450    295.10084    210.48362   -3182.7873   -2743.8472     426.2432    11976.816 
   18500    289.52588      210.397      -3179.9   -2749.2522    528.37742    11981.792 
   18550    299.81122    210.70799   -3190.2664   -2744.3199    148.14502    11986.842 
   18600    297.90452    210.59491   -3186.4971   -2743.3867    210.86306    11991.786 
   18650    290.02521    210.34268   -3178.0894   -2746.6989    366.09314     11996.64 
   18700    295.99172    210.46434   -3182.1445   -2741.8793    94.446513     12001.48 
   18750    296.17406    210.51595   -3183.8649   -2743.3285   -18.016196     12006.18 
   18800     301.6133    210.61105   -3187.0351   -2738.4082   -177.68305    12010.652 
   18850    288.78042    210.25338   -3175.1127   -2745.5737    129.84413    12014.847 
   18900    287.42194    210.37261    -3179.087   -2751.5687    36.793884    12018.883 
   18950     302.4302    210.85839   -3195.2795   -2745.4375   -553.76389    12022.719 
   19000    312.58824    211.23925   -3207.9752   -2743.0238   -919.82163     12026.04 
   19050    282.87452    210.26915   -3175.6382   -2754.8838   -113.57047    12028.711 
   19100    279.46017    210.23228   -3174.4094   -2758.7335   -181.88002     12031.04 
   19150    288.83244    210.51933   -3183.9778   -2754.3614   -587.12447    12033.031 
   19200    277.38165    210.12628    -3170.876   -2758.2918   -365.71797    12034.528 
   19250    288.55916    210.55388   -3185.1294   -2755.9196   -704.10339    12035.558 
   19300    285.98382    210.47253   -3182.4177   -2757.0384    -648.3459    12035.994 
   19350    284.59491    210.48645   -3182.8816   -2759.5683   -529.89214    12035.821 
   19400    271.58606    210.11152   -3170.3842   -2766.4205   -90.754657    12035.121 
   19450    278.19919    210.31142   -3177.0475   -2763.2473   -277.51525    12034.085 
   19500    283.55414    210.49091   -3183.0302   -2761.2649   -537.19083     12032.64 
   19550    289.37865    210.74368    -3191.456   -2761.0272   -722.85948    12030.618 
   19600    280.20148    210.39523   -3179.8409   -2763.0625   -413.03875    12027.966 
   19650    284.71545    210.60776   -3186.9255   -2763.4328   -428.94027    12024.785 
   19700    283.27147    210.65605    -3188.535   -2767.1901   -361.93687    12021.091 
   19750    275.93485    210.44255   -3181.4182    -2770.986   -134.52462     12016.92 
   19800    279.73678    210.49213   -3183.0712   -2766.9839   -171.94985    12012.364 
   19850    290.38417    210.84148   -3194.7159   -2762.7914   -431.20654    12007.397 
   19900     289.6858    210.77158   -3192.3862   -2761.5005   -270.56205    12001.908 
   19950    274.59733    210.37048   -3179.0158   -2770.5731    242.63661    11995.979 
   20000    289.96067    210.76996   -3192.3319   -2761.0373   -93.453361    11989.814 
   20050     300.8667    206.14834   -3204.9445   -2757.4281   -353.40884    11983.275 
   20100    297.27846    206.02367   -3200.7891   -2758.6099   -103.37602    11976.216 
   20150    282.34897    205.61237   -3187.0789   -2767.1062    319.22935    11968.766 
   20200    285.68735    205.79331   -3193.1104   -2768.1721    168.16951    11961.097 
   20250    290.07314    205.92488    -3197.496   -2766.0341    100.23651     11953.17 
   20300    296.58029    206.06853   -3202.2844   -2761.1437   -24.788394    11944.939 
   20350    298.33024    206.06116   -3202.0387   -2758.2951    24.691462    11936.333 
   20400    295.44181    206.07109   -3202.3696   -2762.9223    131.03135    11927.392 
   20450    300.34826    206.23933   -3207.9776   -2761.2324    143.98131    11918.135 
   20500    292.50705    205.99857   -3199.9523   -2764.8702    549.16652    11908.589 
   20550    289.51164    205.80802   -3193.6006    -2762.974     767.6923    11898.953 
   20600    309.28808    206.46247   -3215.4156    -2755.373    394.15742    11889.306 
   20650    293.98298    206.05469    -3201.823   -2764.5456    949.17488    11879.564 
   20700    309.71641     206.5456   -3218.1865   -2757.5068    627.44933     11869.88 
   20750     302.6882    206.30543   -3210.1808   -2759.9551    1009.9091    11860.169 
   20800    298.29832    206.03304   -3201.1014   -2757.4052    1316.4908    11850.611 
   20850    313.05245    206.49206    -3216.402   -2750.7602    992.59542    11841.336 
   20900    302.25959    206.16271   -3205.4238   -2755.8356    1373.9166    11832.248 
   20950     304.8809    206.15683   -3205.2278   -2751.7406    1458.8508    11823.478 
   21000    304.32184    206.24587   -3208.1956   -2755.5399    1573.5433    11815.087 
   21050    317.10107    201.50609   -3216.8696   -2745.2058     1464.268    11807.125 
   21100    308.86787     201.2793   -3209.3098   -2749.8923    1818.1579    11799.571 
   21150    299.46837    200.95145   -3198.3816   -2752.9451    2202.0525    11792.579 
   21200    325.13733    201.72816   -3224.2721   -2740.6549    1621.4858    11786.298 
   21250    321.61974    201.60097   -3220.0323   -2741.6473    1841.8798     11780.55 
   21300     323.9254    201.65975   -3221.9916   -2740.1771    1916.3061     11775.36 
   21350    318.25014    201.51801   -3217.2669   -2743.8939    2164.0522    11770.795 
   21400     310.1091     201.1554   -3205.1801   -2743.9163    2493.7377    11766.996 
   21450    321.97391    201.49663   -3216.5544   -2737.6426    2166.9254      11764.1 
   21500    330.49046    201.67823   -3222.6077   -2731.0282    2019.0824    11761.984 
   21550    316.57057    201.31818    -3210.606   -2739.7313    2442.0569    11760.593 
   21600    322.03473    201.45563   -3215.1877   -2736.1855    2280.0973    11760.101 
   21650    341.14641    201.93975    -3231.325   -2723.8955    1786.3342    11760.438 
   21700    313.80023    201.19056   -3206.3519   -2739.5978    2524.6014    11761.431 
   21750    320.84328    201.36581   -3212.1938   -2734.9637    2279.0733    11763.355 
   21800    313.79912    201.17777   -3205.9256   -2739.1732    2367.8255    11766.186 
   21850    319.62022    201.43761   -3214.5869   -2739.1761    2184.7149    11769.924 
   21900     327.9702    201.69019   -3223.0065   -2735.1756    1861.0411    11774.516 
   21950    317.83327     201.3068   -3210.2266   -2737.4737    2111.1348    11779.824 
   22000    317.29886    201.28995   -3209.6649   -2737.7069    2011.1237    11785.935 
   22050    318.67189    201.30225   -3210.0749   -2736.0746    1895.8332    11792.833 
   22100    315.08426    201.24127   -3208.0424   -2739.3784    1885.2553    11800.448 
   22150    308.24637    201.17264   -3205.7546   -2747.2615    1845.0367    11808.802 
   22200    306.92464    201.17618   -3205.8728   -2749.3456     1709.989    11817.876 
   22250    308.82332    201.23432   -3207.8105   -2748.4592    1516.1768    11827.623 
   22300    306.57991    201.22511   -3207.5036   -2751.4892    1348.0853    11837.943 
   22350    312.73111    201.42528    -3214.176   -2749.0121    1047.9722    11848.718 
   22400    303.94152    201.11269   -3203.7565   -2751.6665    1147.6142    11859.863 
   22450    312.64338    201.46683   -3215.5611   -2750.5278    684.79265    11871.343 
   22500    311.63579    201.42046   -3214.0153   -2750.4807    489.58644    11882.994 
   22550    296.89598    200.99118   -3199.7059   -2758.0957    750.94667    11894.744 
   22600    297.86379    201.01945   -3200.6485   -2757.5987     582.6645    11906.653 
   22650    305.66196    201.40448   -3213.4828   -2758.8338    156.59235     11918.65 
   22700    290.99447    200.98569   -3199.5231   -2766.6909    369.19904    11930.565 
   22750    293.43186    201.06457   -3202.1522   -2765.6946    188.10143     11942.45 
   22800    305.10087    201.43673   -3214.5578   -2760.7433   -315.79025    11954.212 
   22850    290.09998    201.07987   -3202.6625   -2771.1608   -150.83912    11965.632 
   22900    290.63922    201.14587   -3204.8623   -2772.5585   -362.41784    11976.729 
   22950    297.97225    201.21451   -3207.1502   -2763.9391   -692.53918    11987.423 
   23000     291.8587    201.01683   -3200.5611   -2766.4434   -650.21689    11997.558 
   23050    277.00262     200.6191   -3187.3032   -2775.2828   -368.01511    12007.139 
   23100    287.86724    200.99315   -3199.7717    -2771.591   -821.97224    12016.272 
   23150    288.96952    200.97735   -3199.2449   -2769.4246   -974.67413    12024.764 
   23200    281.86648    200.78936   -3192.9786   -2773.7236   -892.80956    12032.495 
   23250    274.60603    200.51111   -3183.7037   -2775.2481   -764.94871     12039.52 
   23300    275.73453    200.59805   -3186.6015   -2776.4673   -879.97739    12045.883 
   23350    286.48723     200.8583   -3195.2766   -2769.1485   -1226.6317    12051.525 
   23400     286.4674    200.82227   -3194.0756    -2767.977   -1228.5382    12056.282 
   23450    288.83013    200.91972   -3197.3241   -2767.7112   -1220.7709     12060.11 
   23500    274.62206     200.5172   -3183.9067   -2775.4272   -881.31198    12063.042 
   23550    279.81769    200.70739   -3190.2463   -2774.0387   -1059.5705    12065.198 
   23600    274.75922    200.55356   -3185.1186   -2776.4351   -991.93734    12066.546 
   23650    274.01661    200.50637   -3183.5457   -2775.9668    -1049.666    12067.079 
   23700    281.15309    200.68368    -3189.456   -2771.2621   -1206.5632    12066.768 
   23750    291.51235    200.92816   -3197.6054   -2764.0029   -1407.5711    12065.518 
   23800    278.91114    200.54572   -3184.8573   -2769.9981    -1063.004    12063.252 
   23850     281.6545    200.69109    -3189.703   -2770.7633   -1196.6977    12060.097 
   23900     289.2176    200.93955   -3197.9852   -2767.7959   -1381.5533    12056.013 
   23950    285.82848    200.76564   -3192.1878   -2767.0396   -1088.0248    12050.906 
   24000    292.13748      200.912   -3197.0665   -2762.5342   -1043.3765    12044.893 
   24050    292.12342    200.98731    -3199.577   -2765.0655   -940.26357    12038.021 
   24100    281.85562    200.70867   -3190.2891   -2771.0503   -624.39774     12030.35 
   24150    304.54362    201.28767   -3209.5892   -2756.6036   -1074.1712    12021.997 
   24200    286.79236    200.80826   -3193.6086   -2767.0267   -449.97419     12012.82 
   24250    287.55186    200.77832   -3192.6105   -2764.8989   -234.40735    12003.051 
   24300    282.47279     200.5964   -3186.5467   -2766.3898    51.269394     11992.84 
   24350    287.43772    200.73981    -3191.327   -2763.7852    33.401657    11982.318 
   24400     308.5216    201.40874   -3213.6247   -2754.7222   -438.79934    11971.488 
   24450    303.83087    201.29704   -3209.9014    -2757.976   -199.61985    11960.155 
   24500    301.24209    201.20222   -3206.7407   -2758.6659    25.330466    11948.389 
   24550    284.87869    200.59686   -3186.5621   -2762.8266    642.34377    11936.345 
   24600    307.58389     201.3279     -3210.93   -2753.4223    233.63836     11924.26 
   24650    307.26695    201.26613    -3208.871   -2751.8347    432.37578    11912.026 
   24700    302.24761    201.14377   -3204.7923   -2755.2219    664.64026    11899.679 
   24750    293.50247    200.94963   -3198.3211   -2761.7584    1014.7097    11887.373 
   24800    295.83231    201.02713   -3200.9043   -2760.8761    1077.9336    11875.273 
   24850    291.81451    200.90306   -3196.7687   -2762.7167    1252.6034    11863.435 
   24900    302.57076    201.14107   -3204.7022   -2754.6511    1164.6983    11851.941 
   24950     320.2496     201.6444   -3221.4799   -2745.1328     913.8784     11840.74 
   25000    309.29353    201.34043   -3211.3478   -2751.2971    1387.4456     11829.73 
   25050    314.04596    196.44926   -3214.9753   -2747.8557    1497.2994    11819.096 
   25100    319.66385    196.65391   -3221.7971   -2746.3213    1477.6677    11808.907 
   25150    307.67286    196.25875    -3208.625    -2750.985    1934.9766    11799.188 
   25200    321.72689    196.66666    -3222.222   -2743.6777    1704.1511    11790.085 
   25250    316.49223    196.51717   -3217.2389   -2746.4807    1962.0993    11781.573 
   25300    323.37465    196.65399   -3221.7996   -2740.8043    1916.4847    11773.729 
   25350    329.35648    196.92696   -3230.8988    -2741.006    1770.4929    11766.514 
   25400    324.28012    196.81306    -3227.102   -2744.7599    1929.0107    11759.882 
   25450    308.54785    196.30295   -3210.0982   -2751.1567    2404.4577    11753.926 
   25500    315.68637    196.53677   -3217.8924   -2748.3328    2262.8339    11748.854 
   25550    323.24797    196.72814   -3224.2712   -2743.4643    2127.9735    11744.595 
   25600    311.46879    196.44169    -3214.723   -2751.4368    2392.9368    11741.121 
   25650    328.02117    196.93225   -3231.0751   -2743.1685     2009.545    11738.489 
   25700    305.60306    196.35172    -3211.724   -2757.1626    2587.8936    11736.598 
   25750    314.06657    196.69886   -3223.2954   -2756.1451    2338.7371    11735.645 
   25800    319.48323    196.90355   -3230.1182   -2754.9111    2197.6577    11735.575 
   25850    321.68222    196.95394   -3231.7979   -2753.3199    2117.7517    11736.304 
   25900    308.42574    196.59255   -3219.7516   -2760.9917    2412.7379    11737.808 
   25950     332.3359    197.32106   -3244.0353   -2749.7109    1733.3047    11740.163 
   26000    306.87206    196.61377   -3220.4589     -2764.01    2345.3539    11743.158 
   26050    327.68075    197.25438   -3241.8126   -2754.4123    1706.4598    11746.949 
   26100    317.29836    196.92841    -3230.947   -2758.9898    1881.1283     11751.33 
   26150     301.3531    196.53875   -3217.9582   -2769.7183    2185.5004    11756.355 
   26200    308.16077    196.73848    -3224.616   -2766.2502    1822.4236    11762.176 
   26250    309.62285    196.74162   -3224.7207   -2764.1802    1734.2148    11768.635 
   26300    307.90327    196.72239   -3224.0797   -2766.0969    1685.0791    11775.679 
   26350    312.85561     196.9134   -3230.4468   -2765.0978    1406.4756    11783.273 
   26400    310.53578    196.86354   -3228.7846   -2766.8862    1373.2603    11791.299 
   26450    311.36615     196.8858   -3229.5268   -2766.3932    1292.1349    11799.725 
   26500    317.57228     197.0139   -3233.7968   -2761.4321    965.75246    11808.496 
   26550    302.98999    196.62378   -3220.7928   -2770.1181    1148.6133     11817.48 
   26600    294.35306    196.50906   -3216.9688    -2779.141    1229.9633    11826.753 
   26650    294.58375    196.53262   -3217.7539   -2779.5829    1132.0065    11836.372 
   26700    298.36554    196.57038   -3219.0127   -2775.2166    877.94474    11846.279 
   26750    311.18053    196.96128   -3232.0428   -2769.1853    384.36599    11856.324 
   26800    301.12774    196.68173   -3222.7242   -2774.8195    495.33409    11866.302 
   26850    304.54077    196.82716   -3227.5722   -2774.5908    312.15055    11876.214 
   26900    288.10528    196.27681   -3209.2271   -2780.6923    543.19924    11886.018 
   26950    298.07788    196.59448   -3219.8162   -2776.4479    62.173049    11895.769 
   27000    288.31542    196.32091    -3210.697   -2781.8497    215.21107    11905.298 
   27050     289.4905    196.32626   -3210.8753   -2780.2801    98.252166    11914.639 
   27100    300.42287    196.58545    -3219.515   -2772.6587   -277.27168    11923.733 
   27150     288.9686    196.31254    -3210.418   -2780.5991   -38.996561    11932.407 
   27200    292.05599     196.4828   -3216.0933   -2781.6821   -251.42259    11940.747 
   27250    288.17151    196.31708   -3210.5694   -2781.9361   -228.03486    11948.682 
   27300    288.74044    196.35897   -3211.9658   -2782.4862   -307.44638    11956.199 
   27350    291.89216    196.40702   -3213.5673   -2779.3998   -523.91057    11963.252 
   27400     287.3419     196.2882   -3209.6067   -2782.2074   -498.45798    11969.733 
   27450    286.96006    196.24234   -3208.0781   -2781.2467   -577.23213    11975.651 
   27500    290.90612     196.3761   -3212.5367   -2779.8359   -847.09916    11980.965 
   27550     291.1465    196.28581   -3209.5269   -2776.4686   -845.26999    11985.542 
   27600    296.74648    196.49759   -3216.5862   -2775.1983   -915.92267    11989.354 
   27650    282.33399    196.11682   -3203.8942   -2783.9437   -633.03861    11992.409 
   27700    280.69655    196.00153   -3200.0508    -2782.536   -623.95461    11994.816 
   27750    286.25476    196.19228   -3206.4095   -2780.6272   -842.23736    11996.597 
   27800    284.78699    196.13682   -3204.5607   -2780.9616   -796.96548     11997.65 
   27850    291.95481    196.25712   -3208.5707   -2774.3101   -909.05943    11997.976 
   27900    295.40823    196.36642   -3212.2139   -2772.8165   -980.87274    11997.531 
   27950    292.89019    196.34077   -3211.3589    -2775.707   -948.16515    11996.267 
   28000    286.30843    196.21964   -3207.3212   -2781.4591   -717.71808    11994.214 
   28050    287.41036    201.25496   -3208.4988   -2780.9976    -620.2561     11991.47 
   28100     288.5873     201.2316   -3207.7201   -2778.4684   -640.46442    11988.118 
   28150    291.30401     201.2214   -3207.3799   -2774.0873   -634.63441    11984.148 
   28200    293.79104    201.28993   -3209.6644   -2772.6725   -667.49267    11979.567 
   28250     299.7238    201.45271   -3215.0905    -2769.274   -679.63349    11974.357 
   28300     278.6438     200.8226   -3194.0866   -2779.6251    84.075435    11968.543 
   28350    284.52782     200.9133   -3197.1099   -2773.8964    63.930843    11962.459 
   28400    296.81464    201.31917   -3210.6391   -2769.1498   -216.38238    11956.134 
   28450    297.06799    201.24591   -3208.1971    -2766.331    -45.83872    11949.432 
   28500    301.91338    201.34106   -3211.3688   -2762.2955    0.9012936    11942.414 
   28550    296.01083    201.11846   -3203.9486    -2763.655    275.73503     11935.12 
   28600    294.49972    201.09025   -3203.0084   -2764.9624    431.20516    11927.677 
   28650    285.66477    200.80247   -3193.4157    -2768.511    795.98462    11920.201 
   28700    287.74904    200.87514   -3195.8381   -2767.8332    829.60534    11912.842 
   28750     302.2972    201.24409   -3208.1363   -2758.4921    614.26077    11905.626 
   28800    305.28229    201.26351   -3208.7837   -2754.6995    637.77839     11898.47 
   28850    309.86629    201.30463   -3210.1542   -2749.2516    666.38828    11891.345 
   28900    297.72349    200.96153   -3198.7176   -2755.8765    1065.2259    11884.293 
   28950    298.19327     201.0162   -3200.5401   -2757.0002    1142.9206    11877.509 
   29000    316.69727    201.52084   -3217.3612    -2746.298    771.48735    11871.014 
   29050    323.36342    196.72556   -3224.1855   -2743.2069    654.55963    11864.622 
   29100    315.07784    196.42618   -3214.2061   -2745.5517    943.14484     11858.27 
   29150    301.53291    196.03579   -3201.1929   -2752.6856    1430.6933    11852.098 
   29200    304.97586    196.16957   -3205.6524    -2752.024    1466.0446    11846.341 
   29250    313.13555    196.33636   -3211.2121   -2745.4467    1291.9202    11841.021 
   29300    309.16286    196.34891   -3211.6302   -2751.7738    1358.7744    11836.055 
   29350    304.92031    196.16201   -3205.4004   -2751.8546    1478.1372    11831.488 
   29400    328.58566    196.76911   -3225.6369   -2736.8906    908.07077    11827.324 
   29450    329.82767    196.90736   -3230.2454   -2739.6517    874.55869    11823.331 
   29500    309.14263    196.26579   -3208.8596   -2749.0333    1500.5171    11819.509 
   29550    319.66509    196.61316   -3220.4387   -2744.9611    1264.8597      11816.1 
   29600    315.28023    196.48084    -3216.028   -2747.0725    1370.5984    11813.045 
   29650    312.42388     196.3555     -3211.85   -2747.1431     1494.084     11810.37 
   29700    313.76871    196.47285   -3215.7616   -2749.0544     1487.513    11808.146 
   29750    328.92879     196.9418   -3231.3934   -2742.1368    1122.3126    11806.341 
   29800    316.44609    196.62521   -3220.8404   -2750.1508    1438.1923    11804.833 
   29850     322.0342    196.75682   -3225.2274   -2746.2259    1329.6908    11803.703 
   29900     310.3262    196.40779   -3213.5931   -2752.0064    1633.6585    11802.972 
   29950    310.85812    196.34239   -3211.4129    -2749.035    1665.3772    11802.759 
   30000    325.26304    196.88546   -3229.5154   -2745.7112    1269.4578    11803.063 
   30050    303.77798    201.27514   -3209.1715   -2757.3248     1834.271    11803.734 
   30100     298.7862    201.00846   -3200.2819   -2755.8601    2123.2585     11805.02 
   30150    296.50565    200.95225   -3198.4085   -2757.3788    2119.3983    11807.111 
   30200     316.8702     201.4627   -3215.4234    -2744.103    1497.4132    11809.951 
   30250    318.23528    201.58326   -3219.4421   -2746.0913    1334.2939    11813.278 
   30300    303.79581    201.18452   -3206.1505   -2754.2773    1642.6514    11816.997 
   30350    310.58984    201.50004   -3216.6681   -2754.6892    1331.8938    11821.221 
   30400    316.30526    201.76356   -3225.4522    -2754.972    1016.7797    11825.836 
   30450     309.5252    201.57778   -3219.2594   -2758.8641    1079.8144    11830.686 
   30500    301.70698    201.30568   -3210.1894   -2761.4232    1214.6755    11835.797 
   30550    307.11038    201.52334   -3217.4446   -2760.6412    1051.7533    11841.221 
   30600    289.07028    201.01047   -3200.3488   -2770.3787    1470.9294    11846.942 
   30650    305.45149    201.47062   -3215.6875   -2761.3515    984.05922    11853.067 
   30700    303.40035    201.47243   -3215.7477   -2764.4627    826.60491    11859.415 
   30750    302.60224    201.45547   -3215.1825   -2765.0846    718.10117    11865.912 
   30800    312.23129    201.67126   -3222.3754    -2757.955    382.84241    11872.472 
   30850    278.48072    200.73804   -3191.2679   -2777.0489    1073.9339    11878.998 
   30900    304.48625    201.51921   -3217.3071   -2764.4069    324.36936    11885.707 
   30950    306.29348    201.59435   -3219.8117   -2764.2234     273.1415    11892.342 
   31000    302.22796    201.50586   -3216.8619   -2767.3207    304.08978    11898.823 
   31050    301.97962    201.44429   -3214.8098    -2765.638    234.61532    11905.165 
   31100    315.01074    201.89888   -3229.9625   -2761.4079   -200.02127    11911.311 
   31150    304.74354    201.61169   -3220.3896   -2767.1067   -69.809864    11917.087 
   31200    306.44541    201.65314   -3221.7713   -2765.9569   -214.26516    11922.499 
   31250    284.61811    201.06847   -3202.2823   -2778.9345    226.55497    11927.544 
   31300    281.32069     200.8948   -3196.4934   -2778.0502    340.96331     11932.41 
   31350    296.04597    201.33202   -3211.0673   -2770.7214   -45.766916    11937.152 
   31400    296.86951    201.39172   -3213.0572   -2771.4864   -91.165563    11941.602 
   31450    291.90087    201.22203   -3207.4009   -2773.2205   -88.599544    11945.725 
   31500    293.36072    201.22398   -3207.4658    -2771.114   -103.87343    11949.496 
   31550    282.44452    200.86276   -3195.4254   -2775.3106    122.59549    11952.946 
   31600    301.50862    201.43562   -3214.5207   -2766.0494   -381.92182    11956.131 
   31650    282.22906    200.85678    -3195.226   -2775.4316    204.27738    11958.892 
   31700    292.43676    201.15867   -3205.2889   -2770.3114   -72.059696    11961.426 
   31750    300.62497    201.41068   -3213.6895   -2766.5326   -386.20007    11963.637 
   31800    295.05124    201.15214   -3205.0714   -2766.2051   -238.51911    11965.385 
   31850    291.84951    201.08256   -3202.7519   -2768.6479   -153.82467    11966.712 
   31900    287.27542    200.89228   -3196.4094   -2769.1089   -89.308109    11967.679 
   31950    284.22435    200.89981   -3196.6604   -2773.8982   -40.371865     11968.31 
   32000    274.78776      200.565   -3185.4999   -2776.7739    224.03518    11968.657 
   32050    304.04384    201.33988   -3211.3292   -2759.0871   -588.48361    11968.783 
   32100    294.67105    201.05027   -3201.6758   -2763.3749   -348.36521    11968.365 
   32150    296.03701    201.07035   -3202.3449   -2762.0123   -299.62232    11967.454 
   32200    294.32947    200.92291   -3197.4304   -2759.6376    -167.4092     11966.11 
   32250    288.32131    200.85955   -3195.3184   -2766.4623    19.995941    11964.394 
   32300    288.33359    200.84847    -3194.949   -2766.0746    33.254998    11962.395 
   32350     293.0535    200.98436   -3199.4787   -2763.5838   -9.3211459    11960.113 
   32400    298.49019    201.12474   -3204.1579   -2760.1763   -70.300935    11957.546 
   32450    308.46914     201.4523   -3215.0767   -2756.2522   -317.66714    11954.639 
   32500    294.85814    201.04708   -3201.5693   -2762.9901    95.003898    11951.309 
   32550    290.94802    200.93218   -3197.7392   -2764.9761    166.03438    11947.721 
   32600    310.41349    201.42076   -3214.0254   -2752.3089   -358.76799    11943.902 
   32650    291.75256    200.84804   -3194.9348    -2760.975    280.64006    11939.666 
   32700     290.6728    200.82438   -3194.1458   -2761.7921    470.47137     11935.26 
   32750    299.81886     201.1005     -3203.35   -2757.3922    307.12676    11930.793 
   32800    306.42644    201.22204   -3207.4013   -2751.6152    255.92027    11926.198 
   32850    310.97795    201.34569   -3211.5231    -2748.967    222.84444    11921.436 
   32900    296.61348    200.95949   -3198.6498   -2757.4598    651.83146    11916.531 
   32950    288.58072    200.66366   -3188.7885   -2759.5466    949.22412    11911.674 
   33000    290.73818    200.75348   -3191.7827   -2759.3317    932.24743    11907.019 
   33050    296.90773    205.84277    -3194.759   -2753.1313    882.08077    11902.578 
   33100    293.18137    205.70362   -3190.1205   -2754.0355    1059.4356    11898.326 
   33150    306.84796     206.0997   -3203.3235   -2746.9104    712.79909    11894.328 
   33200    287.21474    205.50783   -3183.5944   -2756.3843    1340.6758    11890.484 
   33250    292.50819    205.70548   -3190.1826   -2755.0988     1276.398    11887.009 
   33300    295.05147     205.7342     -3191.14   -2752.2733    1261.9786    11883.947 
   33350    303.68723    205.97206   -3199.0687   -2747.3569    1090.6357    11881.262 
   33400    304.21522    205.97724   -3199.2414   -2746.7443    1089.3896    11878.875 
   33450      315.388    206.29353   -3209.7842   -2740.6685    827.65187    11876.743 
   33500    300.19098    205.80323   -3193.4409   -2746.9296    1359.9245    11874.799 
   33550    302.30178    205.83645   -3194.5483   -2744.8973    1424.0382    11873.243 
   33600    302.52859    205.81589   -3193.8628   -2743.8745    1453.7673    11872.162 
   33650    314.37308    206.14749   -3204.9165   -2737.3104    1078.2983    11871.521 
   33700    316.24574    206.09638   -3203.2126    -2732.821    987.08691    11871.165 
   33750    308.96428    205.90519   -3196.8397   -2737.2787    1165.7771    11871.032 
   33800    304.63158    205.76316   -3192.1052   -2738.9888    1376.2223    11871.215 
   33850    299.81792    205.57179   -3185.7262   -2739.7698    1473.5102    11871.835 
   33900    310.63004    205.89807   -3196.6023   -2734.5636    1176.3401    11872.903 
   33950     313.9273    205.97968   -3199.3225   -2732.3795    1113.2427    11874.313 
   34000    320.08869    206.10707    -3203.569   -2727.4613    977.93962    11875.994 
   34050    300.53122    200.55187   -3185.0623   -2738.0449    1459.3519    11877.929 
   34100    306.02807    200.63538   -3187.8459   -2732.6524    1351.2292    11880.295 
   34150    322.76396    201.13778   -3204.5927   -2724.5057    905.35656    11883.036 
   34200    316.72205     200.9379   -3197.9301     -2726.83    1016.0636    11885.972 
   34250    304.86586     200.5556   -3185.1868   -2731.7219    1312.1386    11889.142 
   34300    324.14024    201.19111   -3206.3705   -2724.2365    703.80445    11892.638 
   34350    312.63121    200.82188   -3194.0626   -2729.0473    966.85296    11896.239 
   34400    317.61796    201.02002   -3200.6672   -2728.2345    874.04624    11900.001 
   34450    315.00544    200.97686   -3199.2288   -2730.6821    856.15154    11903.937 
   34500    301.81169      200.518   -3183.9335   -2735.0115    1239.3296    11908.037 
   34550    299.66331     200.5124   -3183.7468   -2738.0204    1193.1354    11912.467 
   34600    310.48655    200.78318   -3192.7727   -2730.9475    751.08765    11917.212 
   34650    311.74065    200.79718   -3193.2392   -2729.5486     685.3027    11922.058 
   34700    312.90882    200.75584   -3191.8615   -2726.4333    673.63128    11926.964 
   34750    322.51544    201.02089   -3200.6965   -2720.9792    402.07735    11931.897 
   34800    318.09107    201.00573   -3200.1911   -2727.0548    473.75433    11936.745 
   34850    317.48995    201.04318   -3201.4392    -2729.197    411.93153    11941.528 
   34900    320.78506    201.10505   -3203.5018   -2726.3583    307.20387    11946.207 
   34950    298.66099    200.52046   -3184.0153   -2739.7797    745.51495    11950.791 
   35000    305.64499    200.79062   -3193.0205   -2738.3968     421.0966    11955.421 
   35050    302.99322    200.64061   -3188.0204   -2737.3409    394.11531    11960.005 
   35100    302.74184     200.7233   -3190.7767   -2740.4711    321.68629    11964.488 
   35150    290.95791    200.47757   -3182.5857   -2749.8078    435.91025    11968.862 
   35200    309.70284    201.08887   -3202.9624   -2742.3029   -211.09865    11973.137 
   35250    307.32615    201.06061   -3202.0205   -2744.8961   -262.38407    11977.039 
   35300     301.3898     200.9332   -3197.7733   -2749.4788   -238.32915    11980.495 
   35350    287.45855    200.53127   -3184.3757   -2756.8029    70.120519    11983.545 
   35400    294.05952    200.91026   -3197.0088   -2759.6175   -169.74509      11986.3 
   35450    281.16772    200.45898   -3181.9661   -2763.7505    50.766982    11988.724 
   35500    291.67628    200.95078   -3198.3595   -2764.5131   -392.15014     11990.84 
   35550    284.01211    200.69845   -3189.9483   -2767.5018   -228.45217    11992.499 
   35600    302.17401    201.28902   -3209.6339   -2760.1729   -713.21074    11993.706 
   35650     297.3011    201.14214   -3204.7381   -2762.5253    -632.0166    11994.283 
   35700    286.21682    200.87139    -3195.713   -2769.9872   -400.00143    11994.242 
   35750    284.82844     200.8732   -3195.7734   -2772.1127   -441.08899    11993.697 
   35800    294.67176    201.20738   -3206.9125   -2768.6106   -746.23643    11992.617 
   35850      291.914    201.16181   -3205.3936   -2771.1936   -676.79257    11990.894 
   35900    291.51629    201.18461   -3206.1536   -2772.5452   -657.56356    11988.515 
   35950    270.92546    200.63844   -3187.9481    -2784.967   -44.324519    11985.539 
   36000    280.67965    200.94209   -3198.0695   -2780.5798   -231.51213    11982.225 
   36050    293.95546    206.32033   -3210.6775    -2773.441   -594.87527    11978.523 
   36100    301.75461    206.58224    -3219.408   -2770.5709   -807.81429    11974.239 
   36150    268.73491    205.58247   -3186.0825   -2786.3597    113.83055    11969.323 
   36200    272.62276    205.81049   -3193.6831   -2788.1774    23.586578    11964.133 
   36250    273.86768    205.86678   -3195.5593   -2788.2019   -18.489107    11958.728 
   36300    293.32909     206.4479   -3214.9298    -2778.625   -440.17831    11953.029 
   36350     279.2314    205.97857   -3199.2857   -2783.9501    15.254317    11946.884 
   36400    280.95432    205.98319   -3199.4398   -2781.5415    35.962587    11940.454 
   36450    280.62992    206.05274   -3201.7581   -2784.3424    84.199571    11933.778 
   36500    275.72038    205.85569   -3195.1898   -2785.0766    335.49466    11926.906 
   36550    298.25046    206.54905   -3218.3015   -2774.6765   -207.04892    11919.903 
   36600     283.5515    206.13474   -3204.4913     -2782.73    231.44592    11912.584 
   36650    290.01997    206.34781   -3211.5936   -2780.2109     161.3314    11905.095 
   36700    302.36543    206.75631   -3225.2104   -2775.4647   -64.923305    11897.415 
   36750     284.3789     206.0746   -3202.4868   -2779.4947    645.68694    11889.492 
   36800    293.47315    206.46197    -3215.399   -2778.8799     512.6874    11881.611 
   36850    309.82904    206.86738   -3228.9127   -2768.0655    237.15275    11873.713 
   36900    293.32805    206.43645   -3214.5483    -2778.245    804.36402    11865.707 
   36950    292.83512    206.42905   -3214.3015   -2778.7315    947.99501    11857.829 
   37000    299.21847    206.54492   -3218.1639   -2773.0991    940.60421    11850.156 
   37050    282.94068    211.10504   -3203.5012   -2782.6484    1446.6069    11842.743 
   37100    301.54927    211.64937   -3221.6457   -2773.1141    996.08165    11835.772 
   37150    302.52928    211.65518   -3221.8393   -2771.8499    1021.6147    11829.087 
   37200    287.84043    211.14045   -3204.6816   -2776.5407    1579.6564    11822.701 
   37250    279.18005    210.91233   -3197.0777   -2781.8185    1890.7939    11816.873 
   37300    302.04949    211.55379   -3218.4595   -2769.1838    1272.9793    11811.729 
   37350    302.92764    211.54662   -3218.2207   -2767.6388    1322.6324    11807.014 
   37400    285.16282     210.9901   -3199.6698   -2775.5117    1946.6177     11802.76 
   37450    303.83091    211.46986   -3215.6619   -2763.7364    1481.9427    11799.191 
   37500    307.72267    211.60386   -3220.1287   -2762.4145    1382.4202    11796.128 
   37550    303.47498     211.4318   -3214.3932   -2762.9972    1574.2275    11793.531 
   37600    302.06446     211.3617   -3212.0566   -2762.7586    1762.2658    11791.474 
   37650       311.12    211.52703   -3217.5678   -2754.8004    1696.8946    11790.041 
   37700    311.07252    211.60438   -3220.1459   -2757.4491    1713.2422    11789.228 
   37750    298.04173    211.24032   -3208.0106   -2764.6961    2056.1661    11789.025 
   37800    282.78692    210.70311   -3190.1037   -2769.4796    2515.7186    11789.625 
   37850    305.51118    211.40764   -3213.5879   -2759.1631    1896.6305    11791.214 
   37900    309.85115    211.44699   -3214.8995   -2754.0194    1802.1362    11793.532 
   37950    305.86589    211.44472   -3214.8239   -2759.8716    1869.4617    11796.504 
   38000    318.08891    211.68445    -3222.815   -2749.6818    1525.1833    11800.143 
   38050    317.20825    206.62234   -3220.7445   -2748.9213    1500.9396      11804.3 
   38100    311.55198    206.39664   -3213.2214   -2749.8115    1624.1299    11808.954 
   38150    308.72388    206.38298    -3212.766   -2753.5626    1628.5318    11814.145 
   38200    307.68237    206.34299   -3211.4329   -2753.7787    1513.7602    11819.887 
   38250     310.7339    206.41007   -3213.6689   -2751.4757     1408.397     11826.12 
   38300    294.14837    205.83756   -3194.5853   -2757.0619    1819.3789     11832.83 
   38350    316.61325    206.55717   -3218.5723   -2747.6341    1047.9029    11840.135 
   38400    311.54677    206.47107   -3215.7022      -2752.3    1041.3299    11847.756 
   38450    304.88117    206.22852   -3207.6174   -2754.1298    1213.7457     11855.64 
   38500    305.98054    206.11851   -3203.9504   -2748.8276    1086.0068    11863.864 
   38550    297.08152    205.80149   -3193.3829   -2751.4967    1190.3222    11872.368 
   38600    298.40982    205.77084   -3192.3613   -2748.4993    1052.8675    11881.206 
   38650    307.10658    206.05421   -3201.8071   -2745.0093    771.27121      11890.3 
   38700    294.38632    205.69909   -3189.9696   -2752.0923     1064.757    11899.546 
   38750    301.55861     205.9364   -3197.8801   -2749.3345    766.71391    11909.035 
   38800    306.16906    206.02734   -3200.9112    -2745.508    495.81142    11918.653 
   38850    304.26534    205.98059    -3199.353   -2746.7814    350.60338    11928.242 
   38900    308.47964    206.11059   -3203.6863   -2744.8462    143.60905     11937.71 
   38950    296.82269    205.80618   -3193.5393   -2752.0381    383.93286    11947.017 
   39000    299.77713    205.80318   -3193.4392   -2747.5435      271.732    11956.227 
   39050    301.51734    200.75286   -3191.7618   -2743.2776    125.06355    11965.292 
   39100     304.0766    200.75396   -3191.7988   -2739.5079    -2.553666    11974.124 
   39150     290.8921     200.4158   -3180.5268   -2747.8469    237.80253    11982.678 
   39200    302.98358    200.77526   -3192.5086   -2741.8435   -156.49181    11991.009 
   39250    299.04453    200.63933   -3187.9778   -2743.1718    -184.3133    11998.986 
   39300     298.5889    200.63425   -3187.8083   -2743.6799   -276.01056    12006.547 
   39350    300.18186    200.63072   -3187.6907   -2741.1929    -355.9285    12013.654 
   39400    312.14912    200.97529   -3199.1763   -2734.8781   -702.70331    12020.258 
   39450    301.24911    200.67258   -3189.0859   -2741.0007   -436.13597    12026.205 
   39500    292.25047    200.34593   -3178.1977   -2743.4973   -277.69126    12031.618 
   39550    296.74275     200.4978     -3183.26   -2741.8776   -474.25775    12036.571 
   39600    296.91997    200.46866   -3182.2888   -2740.6428   -507.48006     12040.99 
   39650    315.09711    200.95429   -3198.4764   -2729.7933   -983.03398    12044.812 
   39700    301.82487    200.54906   -3184.9686    -2736.027   -700.74195    12047.848 
   39750    308.37224    200.66056   -3188.6854    -2730.005   -849.53104    12050.155 
   39800    301.88139    200.44653    -3181.551   -2732.5253   -702.06553    12051.725 
   39850    293.62381    200.31309   -3177.1032     -2740.36   -543.44628    12052.634 
   39900    297.32919    200.34889   -3178.2963   -2736.0416   -590.05934     12052.94 
   39950    305.24903    200.55573    -3185.191   -2731.1562   -747.94298     12052.62 
   40000    296.82633    200.24638   -3174.8793   -2733.3727   -438.13018    12051.634 
   40050    301.91442     205.3606   -3178.6866   -2729.6118    -537.1186      12050.1 
   40100    295.82406    205.24984   -3174.9945   -2734.9786   -367.65851    12048.006 
   40150    278.84564     204.6753   -3155.8434   -2741.0817    172.36935     12045.47 
   40200    301.55729    205.31398   -3177.1326   -2728.5889   -315.12681    12042.692 
   40250    298.32065    205.18126   -3172.7087   -2728.9793   -160.38484    12039.513 
   40300    305.36278    205.31697   -3177.2324   -2723.0284   -201.16849    12035.946 
   40350    297.67633    205.06458   -3168.8194   -2726.0484    108.85442    12032.021 
   40400     309.8183     205.4238   -3180.7932   -2719.9619   -205.71842    12027.842 
   40450    303.62754    205.15533   -3171.8442   -2720.2212   -5.6283824    12023.316 
   40500     319.9076    205.64043   -3188.0143    -2712.176    -332.8685    12018.467 
   40550    309.36891    205.29105   -3176.3682   -2716.2054    90.028651    12013.202 
   40600    297.35521     204.9943   -3166.4767   -2724.1833    450.56607    12007.691 
   40650    309.79571    205.31317   -3177.1055   -2716.3079    196.84196    12002.119 
   40700    325.90804    205.65443   -3188.4811   -2703.7176   -50.042551    11996.364 
   40750    305.48427    204.96547   -3165.5156   -2711.1309    646.82754    11990.359 
   40800    324.84397    205.55271   -3185.0904   -2701.9097    173.46273    11984.341 
   40850    316.72483    205.28005   -3176.0018   -2704.8976    505.29805    11978.185 
   40900     324.2753    205.54096   -3184.6988   -2702.3639    428.14247     11971.97 
   40950    326.98341    205.54738   -3184.9126   -2698.5496    432.69231    11965.691 
   41000    308.84441    204.99993   -3166.6644   -2707.2817    1126.3944    11959.388 
   41050     301.5781     209.7564   -3158.5465   -2709.9719      1527.83    11953.386 
   41100    306.84125    209.95163   -3165.0543   -2708.6512    1395.8633    11947.902 
   41150    315.09054    210.23453   -3174.4843    -2705.811    1192.3599    11942.866 
   41200    303.82567    209.84659   -3161.5531   -2709.6354    1557.5355    11938.219 
   41250    317.18064    210.29629   -3176.5429   -2704.7608    1144.7453    11934.091 
   41300    312.99229    210.20795   -3173.5982   -2708.0459     1261.468    11930.333 
   41350    329.24344    210.57284   -3185.7615   -2696.0368    906.30306    11926.919 
   41400    337.74506    210.88252    -3196.084   -2693.7138    707.67739    11923.687 
   41450      308.122    210.04659   -3168.2198   -2709.9116    1515.6828    11920.601 
   41500    308.04064    210.03792   -3167.9305   -2709.7434    1585.3227    11918.001 
   41550    308.78301    210.01327   -3167.1089   -2707.8175    1633.6528     11915.97 
   41600    309.89405    210.10848   -3170.2827   -2709.3387    1622.2288    11914.504 
   41650    314.31672    210.21857   -3173.9525   -2706.4302    1509.2999    11913.608 
   41700    327.50427    210.58252    -3186.084   -2698.9462    1130.1416    11913.218 
   41750     316.1072    210.18986   -3172.9952   -2702.8097    1501.7395    11913.161 
   41800    307.91844    210.05413   -3168.4709   -2710.4656    1635.5706     11913.59 
   41850    324.72867    210.46966   -3182.3219   -2699.3126    1103.8404    11914.579 
   41900    337.61068    210.88371   -3196.1236   -2693.9533    809.28231    11915.855 
   41950    318.51102    210.30196   -3176.7321   -2702.9711    1410.5935    11917.302 
   42000    316.62103    210.37295   -3179.0984   -2708.1486    1409.4881    11919.164 
   42050    312.26771    205.42761   -3180.9204   -2716.4458     1376.658    11921.485 
   42100    318.14585     205.6362   -3187.8734   -2714.6556    1169.6772    11924.208 
   42150    299.47589    205.07726    -3169.242   -2723.7943    1541.1327    11927.292 
   42200    316.19481    205.53656   -3184.5521   -2714.2363    940.30797    11930.841 
   42250     318.1888    205.51068   -3183.6892   -2710.4075    834.80335    11934.614 
   42300    322.40276    205.78077   -3192.6923   -2713.1426    641.87395     11938.49 
   42350    319.04768     205.8182   -3193.9401   -2719.3808     582.3126    11942.411 
   42400    306.35387    205.49995   -3183.3318   -2727.6536    930.83021    11946.358 
   42450     309.2615     205.6454   -3188.1801   -2728.1771     726.4294    11950.472 
   42500     314.4083    205.80068   -3193.3561   -2725.6976    415.12317    11954.675 
   42550    299.33937    205.46959   -3182.3196    -2737.075    708.91916    11958.838 
   42600    306.25133    205.56286   -3185.4288   -2729.9031    589.77437     11963.07 
   42650    308.32409    205.65232   -3188.4107    -2729.802    367.01245    11967.321 
   42700    319.60992    206.08536   -3202.8453   -2727.4498   -81.628135    11971.451 
   42750    299.03674    205.45067   -3181.6889   -2736.8944     361.7042    11975.313 
   42800    309.11241    205.86063   -3195.3542   -2735.5729   -48.748194        11979 
   42850    281.89591    205.01996    -3167.332   -2748.0332    576.41633    11982.455 
   42900    307.89741    205.81974   -3193.9915   -2736.0174   -176.38126    11985.863 
   42950    311.80321     206.0189   -3200.6301   -2736.8465   -313.42463    11988.922 
   43000    284.05895    205.15265   -3171.7552    -2749.239     413.2966    11991.569 
   43050    298.68133    205.61681   -3187.2271   -2742.9612   -8.8934136    11994.086 
   43100    299.23362    205.55396   -3185.1321   -2740.0448   -46.319433    11996.354 
   43150    290.73244    205.34651   -3178.2171   -2745.7747    40.094958    11998.327 
   43200    294.13748    205.48433   -3182.8111   -2745.3039    -180.9539    12000.022 
   43250     298.9676    205.58537    -3186.179   -2741.4873   -191.93678     12001.35 
   43300    294.76185    205.57455   -3185.8185   -2747.3826   -91.311686    12002.301 
   43350    289.53654    205.45582   -3181.8606   -2751.1969   -107.81711    12002.936 
   43400    290.21933    205.49202   -3183.0674   -2751.3882   -215.76042    12003.236 
   43450    295.66023    205.67988   -3189.3292    -2749.557   -345.14653    12003.152 
   43500    299.50162    205.79454   -3193.1513   -2747.6653   -409.02845    12002.616 
   43550    305.44663    205.95823   -3198.6078    -2744.279   -522.04257    12001.569 
   43600    300.46586     205.7997   -3193.3234   -2746.4032   -389.58669    11999.979 
   43650    289.88018    205.48921   -3182.9738    -2751.799   -76.739269    11997.911 
   43700    292.14793     205.6219   -3187.3965   -2752.8486   -147.46655    11995.496 
   43750    287.51298    205.45926   -3181.9754   -2754.3216   -34.875155    11992.752 
   43800    303.11722    205.86284    -3195.428   -2744.5641   -395.66634    11989.699 
   43850    287.15869    205.46698   -3182.2325   -2755.1057    77.556496     11986.21 
   43900    291.77293     205.5915   -3186.3833   -2752.3932    26.630271    11982.469 
   43950    303.19294    205.94385   -3198.1284   -2747.1519   -208.79716    11978.468 
   44000    289.93165    205.50493   -3183.4978   -2752.2465    281.99827    11974.118 
[...]
   89400    308.28558    196.40983   -3213.6611   -2755.1097   -559.14203    11963.492 
   89450     296.4431     196.0768     -3202.56   -2761.6233   -194.16819    11964.591 
   89500    298.36541    196.08561   -3202.8537   -2759.0577   -249.29362    11965.259 
   89550    298.71564    196.02646   -3200.8819    -2756.565   -309.80153    11965.496 
   89600    299.43554    195.99636   -3199.8786   -2754.4909   -195.94992    11965.268 
   89650    293.40898    195.79647   -3193.2156   -2756.7919     136.3512    11964.657 
   89700    312.92868    196.27129    -3209.043   -2743.5853   -348.41805    11963.773 
   89750    316.00286     196.3211   -3210.7034   -2740.6731   -475.47158    11962.399 
   89800    289.85691    195.46613   -3182.2043   -2751.0642    272.91435    11960.506 
   89850    297.34393    195.73865   -3191.2883   -2749.0117    132.39688    11958.388 
   89900    304.19627    195.93495   -3197.8318   -2745.3629   -33.346937    11956.039 
   89950    309.91787    196.09287   -3203.0958   -2742.1164    -163.4375     11953.35 
   90000    295.56982    195.61772   -3187.2574   -2747.6197    298.75928    11950.282 
   90050    301.98031    195.87077   -3195.6925   -2746.5197    232.61095    11947.021 
   90100    297.68333    195.70287   -3190.0956   -2747.3142     405.6854    11943.584 
   90150    317.10833    196.26726   -3208.9088   -2737.2342   -84.842695    11939.982 
   90200    311.68058    196.12597   -3204.1989   -2740.5977    7.3652793     11936.03 
   90250    313.21168     196.1315   -3204.3834   -2738.5048    40.878483    11931.723 
   90300        300.3    195.84799    -3194.933   -2748.2595    430.72798    11927.122 
   90350    303.91964    195.90884   -3196.9614   -2744.9039    463.51638    11922.385 
   90400    303.70737    195.88999    -3196.333   -2744.5913    608.68314    11917.572 
   90450    306.72633     196.0057   -3200.1901   -2743.9579    559.51403    11912.734 
   90500    312.12353    196.17242   -3205.7474   -2741.4873    414.43135    11907.843 
   90550    319.06286    196.35136   -3211.7121   -2737.1303    207.78737    11902.825 
   90600    319.12962    196.29723   -3209.9078   -2735.2267    269.98106    11897.579 
   90650    289.06415    195.48792   -3182.9307   -2752.9697    1129.8109    11892.188 
   90700    306.27163    195.94393   -3198.1311   -2742.5752    834.57925    11886.973 
   90750    320.32836    196.41319    -3213.773   -2737.3089    534.69165    11881.853 
   90800    316.66459     196.2933   -3209.7766    -2738.762    777.09153    11876.694 
   90850    304.97609    195.92074   -3197.3582   -2743.7293    1124.2727    11871.594 
   90900    312.62106    196.22742   -3207.5808   -2742.5807    928.45885    11866.704 
   90950     323.1682    196.51504   -3217.1681   -2736.4799    683.09412    11861.953 
   91000    318.84427    196.45872   -3215.2906   -2741.0339    792.83655    11857.222 
   91050    310.99071     196.2295   -3207.6501    -2745.075     1109.809    11852.564 
   91100    308.28532    196.15164   -3205.0547   -2746.5036    1238.7884    11848.133 
   91150    322.83611     196.6552   -3221.8399   -2741.6457    854.91274    11843.957 
   91200    313.47192    196.36389   -3212.1297    -2745.864    1118.4446    11839.929 
   91250    307.58045    196.23818   -3207.9395   -2750.4368    1284.7705    11836.149 
   91300    309.53281    196.36659   -3212.2198   -2751.8132    1154.5843    11832.675 
   91350    311.65589     196.3826   -3212.7535    -2749.189    1138.9221    11829.479 
   91400    318.93391     196.6495   -3221.6501   -2747.2601    953.76106    11826.553 
   91450    325.27041    196.91709   -3230.5698   -2746.7547    805.12204    11823.782 
   91500    309.96768    196.40757   -3213.5858   -2752.5324    1228.9137    11821.112 
   91550    308.62801    196.38514   -3212.8379   -2753.7771    1288.4841     11818.73 
   91600    304.44072    196.41029   -3213.6764   -2760.8439    1413.6948    11816.692 
   91650    300.40322      196.301   -3210.0333   -2763.2063    1585.8598    11815.054 
   91700    304.72925    196.34796   -3211.5985   -2758.3369    1434.4398    11813.919 
   91750      316.846    196.82636   -3227.5453   -2756.2609    984.51553    11813.176 
   91800    314.12477    196.79299   -3226.4328   -2759.1961    1015.9011    11812.639 
   91850    304.69858    196.50867   -3216.9557   -2763.7396    1187.9156    11812.322 
   91900    308.83237    196.63573   -3221.1911   -2761.8264    1050.0879    11812.276 
   91950    311.01703    196.84045   -3228.0149   -2765.4006    951.81644    11812.467 
   92000    313.59926    196.94709   -3231.5695   -2765.1144    898.50643    11812.827 
   92050    294.69117    196.37246   -3212.4154   -2774.0846    1377.9886    11813.372 
   92100    306.29648    196.75912   -3225.3041   -2769.7113     992.9707    11814.267 
   92150    302.40916    196.78283   -3226.0943   -2776.2835    1033.9802      11815.4 
   92200    301.97255     196.7519   -3225.0632   -2775.9019    1052.4778    11816.766 
   92250    310.21179    197.02166   -3234.0553   -2772.6388    816.11742    11818.358 
   92300    291.54942     196.4316   -3214.3867    -2780.729    1241.2372    11820.119 
   92350    299.76323     196.6648   -3222.1601    -2776.285    867.60832     11822.17 
   92400     306.7224    196.93508   -3231.1694    -2774.943    542.08974    11824.377 
   92450    318.26052    197.36358   -3245.4528   -2772.0644    168.20701    11826.564 
   92500    300.04892    196.75923   -3225.3078   -2779.0078    773.64615    11828.586 
   92550    288.52304    196.36053   -3212.0178   -2782.8616    1066.1461    11830.702 
   92600    301.24756    196.80678   -3226.8927   -2778.8098    602.73168    11833.048 
   92650    290.15368    196.45221   -3215.0738   -2783.4922    882.97722    11835.472 
   92700    304.65595    196.89583    -3229.861   -2776.7083    468.73296    11838.023 
   92750      296.152    196.70519   -3223.5064   -2783.0027    632.16255    11840.551 
   92800    282.67728    196.41079    -3213.693    -2793.232    931.95832    11843.131 
   92850    303.64789    196.98305   -3232.7682    -2781.115    304.57724    11845.881 
   92900    301.46368    196.97996   -3232.6655   -2784.2611    275.27248    11848.537 
   92950    301.21841     196.9624   -3232.0801   -2784.0405    306.25331    11851.039 
   93000    296.36739    196.86856   -3228.9519   -2788.1279    331.60399     11853.42 
   93050    288.40633    196.61607   -3220.5357   -2791.5532    513.73289     11855.69 
   93100    299.35403     196.8914   -3229.7132   -2784.4468    258.61543    11857.923 
   93150    299.95694     196.9307   -3231.0234   -2784.8602    188.37192    11860.004 
   93200    292.06368    196.75248   -3225.0827   -2790.6602    320.62211    11861.899 
   93250    290.60587    196.75355   -3225.1184   -2792.8642    236.30272    11863.674 
   93300    278.01231    196.26955   -3208.9849   -2795.4627    544.21578    11865.319 
   93350    305.53368    197.02339   -3234.1129   -2779.6547   -91.779198      11866.9 
   93400    288.70419    196.57014   -3219.0046    -2789.579    339.98066    11868.215 
   93450    300.87552    196.91758   -3230.5859   -2783.0563    56.612109    11869.365 
   93500    292.85648    196.64217   -3221.4056   -2785.8038    258.22843    11870.288 
   93550    295.18117    196.73184   -3224.3948   -2785.3352    142.50713    11871.035 
   93600    309.04791    197.17515   -3239.1717   -2779.4863    -276.2867     11871.53 
   93650    285.69388    196.58828   -3219.6093   -2794.6613    243.60254    11871.631 
   93700    297.75358    196.84762   -3228.2542   -2785.3683    44.148824    11871.517 
   93750    281.97613    196.44942   -3214.9806   -2795.5625    476.36727    11871.181 
   93800    293.01385     196.7429   -3224.7632   -2788.9273    231.93809    11870.747 
   93850    287.76984    196.55897   -3218.6322   -2790.5964      357.273    11870.164 
   93900    283.11329    196.45014   -3215.0045    -2793.895    480.71203    11869.478 
   93950    297.99293    196.94992   -3231.6639    -2788.422    107.74057    11868.726 
   94000    295.52329    196.79498   -3226.4992   -2786.9307    225.97331    11867.762 
   94050    312.65201    197.33285   -3244.4282   -2779.3821   -174.82229    11866.561 
   94100     297.6819    196.84802   -3228.2673   -2785.4881    327.42226    11865.014 
   94150    288.84809    196.50784   -3216.9281   -2787.2884     701.0184    11863.326 
   94200    298.94304    196.78687   -3226.2288   -2781.5737    406.17121    11861.662 
   94250    305.57023    196.96074   -3232.0247   -2777.5122    259.48723    11859.884 
   94300    290.66581    196.54793   -3218.2643   -2785.9209    613.56839     11857.96 
   94350    297.05649    196.78095   -3226.0318   -2784.1828     435.5351    11855.993 
   94400    286.31069    196.39361   -3213.1202   -2787.2548    816.89291    11853.981 
   94450    292.87373       196.51   -3216.9999   -2781.3724    767.09191    11852.074 
   94500    297.99865    196.67759   -3222.5862   -2779.3358    657.67568    11850.247 
   94550    303.04967    196.81486    -3227.162   -2776.3985    552.77897    11848.434 
   94600    295.82337    196.56901   -3218.9671   -2778.9522    797.63446    11846.612 
   94650    304.56765    196.78968   -3226.3226   -2773.3013     506.3445    11844.863 
   94700    310.42189    197.00849   -3233.6162   -2771.8871    346.49877    11843.045 
   94750    299.89383    196.70533    -3223.511   -2777.4417    764.72101    11841.112 
   94800    302.52132    196.79094   -3226.3648   -2776.3872    707.63683     11839.22 
   94850    295.20743    196.60518   -3220.1728   -2781.0741    807.66114    11837.391 
   94900     302.2994    196.70937   -3223.6455   -2773.9981    739.36808    11835.639 
   94950    294.95848    196.48576   -3216.1918   -2777.4635    1011.7621    11833.963 
   95000    313.85212    197.02023   -3234.0076   -2767.1764    519.96196    11832.454 
   95050    308.31051    196.89088   -3229.6958   -2771.1073    610.36748    11830.913 
   95100    299.63664    196.66311   -3222.1038    -2776.417    906.27088    11829.357 
   95150    297.03664    196.58466   -3219.4886   -2777.6691    1083.5729    11827.953 
   95200    311.64294    196.96446   -3232.1486   -2768.6034    810.70083    11826.775 
   95250    315.87481    196.93762   -3231.2541   -2761.4143    762.25043    11825.706 
   95300    315.48284     196.9064   -3230.2134   -2760.9566    754.17214    11824.713 
   95350    302.40251    196.46113   -3215.3712   -2765.5703    1118.0398    11823.815 
   95400    314.72043    196.85354   -3228.4512   -2760.3285    800.82272    11823.129 
   95450    315.59711     196.7801   -3226.0032   -2756.5764    833.35196    11822.565 
   95500    297.13995    196.29276   -3209.7587   -2767.7855    1352.5597    11822.131 
   95550    310.16407     196.6335   -3221.1167   -2759.7712    1021.6671     11822.04 
   95600    315.09196    196.75145   -3225.0485   -2756.3731    865.82406    11822.175 
   95650    309.21782    196.49442   -3216.4808   -2756.5427    1129.4497    11822.453 
   95700    304.49706    196.37744   -3212.5812   -2759.6649    1328.2735    11822.992 
   95750    309.81768    196.56031   -3218.6771   -2757.8468    1084.4599    11823.906 
   95800    318.24941    196.80774   -3226.9246   -2753.5528    773.60608    11825.067 
   95850    303.57246    196.28924   -3209.6413   -2758.1003    1204.1759    11826.358 
   95900    307.71955    196.39438    -3213.146   -2755.4365    1186.5742    11827.942 
   95950    314.99941    196.51801   -3217.2671   -2748.7293    1053.8485    11829.837 
   96000    303.77212    196.15889   -3205.2964   -2753.4584    1361.9606    11832.019 
   96050    323.11536    196.75759   -3225.2529   -2744.6433    861.55482    11834.551 
   96100    325.86271    196.79065    -3226.355   -2741.6589     776.9719    11837.246 
   96150    311.03237    196.26058    -3208.686    -2746.049    1171.4361    11840.073 
   96200    308.66001    196.15819   -3205.2728   -2746.1645    1273.1167    11843.179 
   96250    299.52453    195.82411    -3194.137    -2748.617    1537.3931    11846.668 
   96300    320.85984    196.37152   -3212.3838   -2735.1292    1036.5951    11850.628 
   96350    318.44753    196.24449   -3208.1497   -2734.4831    1105.7228    11854.875 
   96400    327.70993    196.54612   -3218.2039   -2730.7602     808.7352    11859.368 
   96450     310.8094    195.99579   -3199.8595   -2737.5541    1228.8112    11864.036 
   96500    319.66808     196.1917   -3206.3902   -2730.9081    996.54915     11869.02 
   96550    315.17579    196.03804   -3201.2682   -2732.4681    1037.5901    11874.279 
   96600    319.65933    196.16708   -3205.5692   -2730.1001    829.90277    11879.772 
   96650    311.17386    195.94428   -3198.1428   -2735.2952    1015.0573    11885.443 
   96700    311.54041    195.98926   -3199.6419   -2736.2492    972.28636    11891.369 
   96750    314.14258    195.94603    -3198.201   -2730.9378     842.0161     11897.54 
   96800    327.24534    196.21776   -3207.2587    -2720.506    518.45425    11903.874 
   96850     325.9031    196.16481   -3205.4937   -2720.7375    566.71491    11910.222 
   96900     316.4441    195.82501   -3194.1671   -2723.4805    770.10413    11916.606 
   96950     326.5275    196.06877   -3202.2924   -2716.6075    431.42023    11923.096 
   97000    311.72344    195.69697   -3189.8989   -2726.2339    723.79159    11929.586 
   97050    328.47082    196.14806   -3204.9353   -2716.3598    226.18438    11936.121 
   97100    305.95351    195.42325   -3180.7749   -2725.6923    741.70098    11942.558 
   97150    318.25686     195.7029   -3190.0967   -2716.7137    440.84358    11949.082 
   97200    327.25459    196.03278   -3201.0926   -2714.3262    130.99635    11955.595 
   97250    312.09802    195.65151   -3188.3836   -2724.1615    493.11533    11961.952 
   97300     319.3186    195.82583   -3194.1945   -2719.2322    305.71544    11968.265 
   97350    312.08082    195.55427   -3185.1424   -2720.9458    378.95515    11974.502 
   97400    312.91834    195.59052   -3186.3505   -2720.9082    214.10977     11980.65 
   97450     308.2111    195.61756   -3187.2521   -2728.8114    165.00826    11986.644 
   97500    309.32723    195.58679   -3186.2263   -2726.1255    77.217785    11992.464 
   97550    315.09489    195.75204   -3191.7348    -2723.055   -146.82078    11998.056 
   97600    314.12151    195.76297    -3192.099    -2724.867   -212.51209    12003.314 
   97650    304.51698    195.47059   -3182.3531   -2729.4072     2.411182    12008.201 
   97700    313.35861    195.68533   -3189.5109   -2723.4137   -255.49931    12012.783 
   97750    310.74339    195.60916    -3186.972   -2724.7648   -327.61065    12016.963 
   97800    308.05822    195.58075   -3186.0251   -2727.8118   -396.50646    12020.688 
   97850    302.26096    195.42124   -3180.7081   -2731.1179   -261.86061    12023.925 
   97900    312.82846    195.77925   -3192.6416    -2727.333   -573.22086     12026.71 
   97950    321.06682    196.12628   -3204.2092   -2726.6466    -847.3139    12028.901 
   98000    302.25953    195.53564   -3184.5213   -2734.9332    -365.6042    12030.372 
   98050    304.72804     195.5543   -3185.1432   -2731.8833   -520.06147    12031.314 
   98100    301.48415    195.54846   -3184.9486   -2736.5138   -559.61631     12031.67 
   98150     302.7701    195.68783   -3189.5942   -2739.2466   -570.67905    12031.407 
   98200    311.38336    196.00468   -3200.1559   -2736.9967   -828.07706    12030.519 
   98250    300.52524    195.71846   -3190.6154   -2743.6069   -684.86243    12028.881 
   98300    297.57058    195.74141   -3191.3803   -2748.7666   -690.63536    12026.524 
   98350    300.86907    195.83779   -3194.5931   -2747.0731   -681.81159    12023.453 
   98400    287.04697    195.40111    -3180.037   -2753.0763    -313.4356    12019.727 
   98450    311.39291    196.10897   -3203.6325   -2740.4591   -949.22856     12015.43 
   98500    302.95883    196.06124   -3202.0413    -2751.413   -752.66887    12010.313 
   98550    296.33852    195.87131   -3195.7105   -2754.9294   -519.32424     12004.43 
   98600    297.94781     196.0137   -3200.4567   -2757.2819   -505.43143    11997.884 
   98650    282.88172    195.66576   -3188.8587   -2768.0936   -50.157905    11990.747 
   98700    289.85611    195.83314    -3194.438    -2763.299   -186.19107    11983.186 
   98750    294.12019    195.97814   -3199.2715     -2761.79   -319.14351    11975.173 
   98800    309.02474    196.47789   -3215.9297   -2756.2788   -654.49081      11966.6 
   98850    282.68411    195.78308   -3192.7693   -2772.2981    83.579889    11957.362 
   98900    292.07895     196.1201   -3204.0035   -2769.5582    -98.89766    11947.734 
   98950     308.8483    196.59492   -3219.8308   -2760.4423   -424.91295    11937.674 
   99000     299.7415    196.28582   -3209.5274   -2763.6846     -48.2815     11927.04 
   99050    297.33936    196.32642   -3210.8807    -2768.611    87.356068    11915.978 
   99100     313.7766    196.83496    -3227.832   -2761.1131   -177.85561    11904.552 
   99150    291.21042    196.18976   -3206.3254   -2773.1719    565.49293    11892.707 
   99200    291.05722    196.23391   -3207.7969   -2774.8713    701.49462    11880.718 
   99250    301.60051    196.52841   -3217.6137   -2769.0058    552.58904    11868.707 
   99300    316.27678    197.00252   -3233.4175   -2762.9797    307.37072    11856.582 
   99350    294.92761    196.39749   -3213.2496   -2774.5672    936.04003    11844.264 
   99400    306.65779     196.8083   -3226.9433   -2770.8131    712.49361    11831.998 
   99450    301.08988    196.66683   -3222.2278   -2774.3794     949.9994    11819.748 
   99500    290.22668    196.39442   -3213.1472    -2781.457    1305.9798    11807.617 
   99550     306.5289    196.95084   -3231.6948   -2775.7563    975.70884    11795.752 
   99600    316.03042    197.17673   -3239.2244   -2769.1531    1035.6691    11784.029 
   99650     294.8931    196.56657   -3218.8857   -2780.2545    1777.7791    11772.501 
   99700    315.44383    197.22671   -3240.8903   -2771.6915     1321.375    11761.448 
   99750    313.35679    197.22386   -3240.7953   -2774.7008     1446.489    11750.732 
   99800    293.92023    196.63907   -3221.3023   -2784.1183    2127.1014    11740.416 
   99850     313.4488    197.17951    -3239.317   -2773.0856    1789.0744    11730.764 
   99900    311.60489    197.07593   -3235.8645   -2772.3758    1909.4557    11721.695 
   99950    322.05537    197.38713   -3246.2377   -2767.2047    1708.7159    11713.203 
  100000    310.68827    197.13908   -3237.9692    -2775.844     2099.487    11705.241 
Loop time of 26.8327 on 1 procs for 100000 steps with 500 atoms

Performance: 321.996 ns/day, 0.075 hours/ns, 3726.802 timesteps/s
99.8% CPU use with 1 MPI tasks x 1 OpenMP threads

MPI task timing breakdown:
Section |  min time  |  avg time  |  max time  |%varavg| %total
---------------------------------------------------------------
Pair    | 22.338     | 22.338     | 22.338     |   0.0 | 83.25
Bond    | 0.0067482  | 0.0067482  | 0.0067482  |   0.0 |  0.03
Neigh   | 0.49283    | 0.49283    | 0.49283    |   0.0 |  1.84
Comm    | 0.78044    | 0.78044    | 0.78044    |   0.0 |  2.91
Output  | 0.018181   | 0.018181   | 0.018181   |   0.0 |  0.07
Modify  | 2.7344     | 2.7344     | 2.7344     |   0.0 | 10.19
Other   |            | 0.4625     |            |       |  1.72

Nlocal:    500 ave 500 max 500 min
Histogram: 1 0 0 0 0 0 0 0 0 0
Nghost:    1615 ave 1615 max 1615 min
Histogram: 1 0 0 0 0 0 0 0 0 0
Neighs:    14741 ave 14741 max 14741 min
Histogram: 1 0 0 0 0 0 0 0 0 0

Total # of neighbors = 14741
Ave neighs/atom = 29.482
Ave special neighs/atom = 0
Neighbor list builds = 587
Dangerous builds = 0

write_data      ${walker}/final_restart_file
write_data      4/final_restart_file

quit
