LAMMPS (19 May 2017)
Processor partition = 4
  using 1 OpenMP thread(s) per MPI task
# gREM variables
variable        lambda world 1000 1005 1010 1015 1020 1025 1030 1035 1040 1045 1050 1055 1060 1065 1070 1075
variable        walker world 0 1 2 3 4 5 6 7 8 9 10 11 12 13 14 15
variable        replica world 1 3 7 2 4 6 5 8 11 14 0 10 12 13 9 15

variable        T0 equal 300.0
variable        press equal 0.0

units           real
atom_style      full
pair_style      lj/cut 5.0

# LJ particles
read_data       ${walker}/restart_file
read_data       4/restart_file
  orthogonal box = (1.06956 1.06956 1.06956) to (23.9304 23.9304 23.9304)
  1 by 1 by 1 MPI processor grid
  reading atoms ...
  500 atoms
  reading velocities ...
  500 velocities
  0 = max # of 1-2 neighbors
  0 = max # of 1-3 neighbors
  0 = max # of 1-4 neighbors
  1 = max # of special neighbors

#dump            dump all xyz 1000 ${walker}/dump.xyz

fix             fxnpt all npt temp ${T0} ${T0} 1000.0 iso ${press} ${press} 10000.0
fix             fxnpt all npt temp 300 ${T0} 1000.0 iso ${press} ${press} 10000.0
fix             fxnpt all npt temp 300 300 1000.0 iso ${press} ${press} 10000.0
fix             fxnpt all npt temp 300 300 1000.0 iso 0 ${press} 10000.0
fix             fxnpt all npt temp 300 300 1000.0 iso 0 0 10000.0
fix             fxgREM all grem ${lambda} -.03 -30000 fxnpt
fix             fxgREM all grem 1020 -.03 -30000 fxnpt
thermo_modify   press fxgREM_press

thermo          50
thermo_style    custom step temp f_fxgREM pe etotal press vol
WARNING: New thermo_style command, previous thermo_modify settings will be lost (../output.cpp:705)
timestep        1.0

temper/grem     100000 1000 ${lambda} fxgREM fxnpt 10294 98392 ${walker}
temper/grem     100000 1000 1020 fxgREM fxnpt 10294 98392 ${walker}
temper/grem     100000 1000 1020 fxgREM fxnpt 10294 98392 4
Neighbor list info ...
  update every 1 steps, delay 10 steps, check yes
  max neighbors/atom: 2000, page size: 100000
  master list distance cutoff = 7
  ghost atom cutoff = 7
  binsize = 3.5, bins = 7 7 7
  1 neighbor lists, perpetual/occasional/extra = 1 0 0
  (1) pair lj/cut, perpetual
      attributes: half, newton on
      pair build: half/bin/newton
      stencil: half/bin/3d/newton
      bin: standard
Per MPI rank memory allocation (min/avg/max) = 5.722 | 5.722 | 5.722 Mbytes
Step Temp f_fxgREM PotEng TotEng Press Volume 
       0    291.95248    215.78295    -3192.765   -2758.5078    374.99494    11947.564 
      50    282.13263    215.41573   -3180.5244   -2760.8735    756.41804    11947.576 
     100    286.09033    215.50769   -3183.5896   -2758.0519    706.82441    11947.714 
     150    282.80648    215.45998   -3181.9995   -2761.3463    637.97446    11947.986 
     200    296.93101    215.89703   -3196.5677   -2754.9054    188.09018    11948.318 
     250    298.35758     215.9576   -3198.5868   -2754.8025    177.44969    11948.512 
     300    286.87192     215.5442   -3184.8067   -2758.1065    560.21062    11948.586 
     350    297.69774    215.82516   -3194.1719   -2751.3691    325.12875    11948.669 
     400    285.95839    215.44441   -3181.4805   -2756.1391    728.31041    11948.723 
     450    281.19921     215.3451     -3178.17   -2759.9075    832.62053    11948.907 
     500      293.444    215.71271   -3190.4236   -2753.9479    391.63766    11949.266 
     550    299.64793    215.82548   -3194.1827   -2748.4791    209.24568    11949.598 
     600    288.90787    215.45326   -3181.7754   -2752.0468    574.72994    11949.828 
     650    280.71947    215.22467   -3174.1557   -2756.6067    862.67182     11950.12 
     700    294.33679    215.67586   -3189.1954   -2751.3917    476.39996    11950.605 
     750    292.02876    215.50672   -3183.5574   -2749.1867    610.28687    11951.141 
     800    299.73176    215.71265   -3190.4218   -2744.5935     494.9583    11951.714 
     850    299.69094    215.64481   -3188.1602   -2742.3926    482.97594    11952.316 
     900    301.36881    215.68642   -3189.5472   -2741.2839    411.98832    11952.919 
     950    292.82897    215.38417   -3179.4724   -2743.9115      692.731    11953.514 
    1000    289.67365    215.30496   -3176.8321   -2745.9645    780.29223     11954.22 
    1050    298.79118    215.54123   -3184.7075   -2740.2783    575.29503    11955.071 
    1100    294.80929    215.37203   -3179.0677   -2740.5612     663.3519        11956 
    1150    302.71517    215.58981   -3186.3271   -2736.0613    430.96231    11957.011 
    1200    299.37299    215.39904   -3179.9681   -2734.6735    619.43394    11958.022 
    1250    295.53229     215.2832   -3176.1068   -2736.5249     846.5963    11959.099 
    1300    287.64959    215.00302   -3166.7674   -2738.9105    1124.5753    11960.391 
    1350    298.03721    215.19442   -3173.1472   -2729.8394    830.04986    11962.004 
    1400    303.29825    215.41352   -3180.4507   -2729.3175    618.19454    11963.796 
    1450    309.25288     215.4779   -3182.5966   -2722.6063    529.53583    11965.676 
    1500     302.1242    215.28556   -3176.1852   -2726.7984    676.99005    11967.604 
    1550    312.16512    215.58618   -3186.2061   -2721.8841    333.95115    11969.592 
    1600    301.38889    215.20202   -3173.4007   -2725.1076     685.1108    11971.546 
    1650    310.13646    215.41432   -3180.4774   -2719.1729    513.56234    11973.581 
    1700    312.66632    215.38127   -3179.3757   -2714.3083    450.31871    11975.649 
    1750    306.87427    215.20767   -3173.5891   -2717.1369    593.59901    11977.708 
    1800    303.12519    215.04711   -3168.2369   -2717.3612    756.80045    11979.828 
    1850    292.56579    214.71111    -3157.037   -2721.8676    1030.7209    11982.092 
    1900    302.48328    214.97519   -3165.8398   -2715.9189    710.87712    11984.609 
    1950    313.35072    215.38464   -3179.4879   -2713.4025    264.74575    11987.253 
    2000    306.55592    215.10888    -3170.296   -2714.3173    459.06679    11989.816 
    2050    301.28033    219.92079   -3164.0265   -2715.8948    683.77702    11992.366 
    2100     291.0329    219.54443   -3151.4812   -2718.5918    936.15555    11995.056 
    2150    308.49956    220.06254   -3168.7514   -2709.8817    448.28543    11997.965 
    2200    307.96006    220.01645    -3167.215   -2709.1477    505.36615    12000.908 
    2250    303.01572    219.88838    -3162.946   -2712.2331    595.48944    12003.861 
    2300    295.91525    219.64063   -3154.6877   -2714.5362    763.51419    12006.909 
    2350    301.48329    219.79935   -3159.9784   -2711.5449    542.11155    12010.129 
    2400    306.30092    219.92583   -3164.1943   -2708.5949     431.1391      12013.4 
    2450    293.34632    219.55674   -3151.8913   -2715.5608     867.3033    12016.691 
    2500    317.39632    220.24001    -3174.667    -2702.564     245.3114    12020.147 
    2550    308.51458     219.9504   -3165.0132   -2706.1212    415.19898    12023.535 
    2600    305.09467    219.78718   -3159.5726   -2705.7674    523.40906    12026.878 
    2650    295.14378    219.45532   -3148.5106   -2709.5066    770.37771    12030.281 
    2700    302.56678    219.69077   -3156.3591   -2706.3139    531.15987    12033.829 
    2750    305.31738    219.70699   -3156.8998   -2702.7633    382.46043    12037.424 
    2800    300.61972    219.56725   -3152.2416   -2705.0926    479.13057    12040.995 
    2850    306.09177    219.83161   -3161.0537   -2705.7654    327.92823    12044.558 
    2900    305.20773    219.78223   -3159.4077   -2705.4343    196.55906     12048.07 
    2950    308.77607    220.04488   -3168.1627   -2708.8817   -38.775655     12051.43 
    3000    284.63978    219.14725   -3138.2418   -2714.8617    692.79326    12054.601 
    3050    302.30803    214.69865   -3156.6218   -2706.9615    157.44682    12057.819 
    3100    308.90771    214.94427   -3164.8091   -2705.3323   -102.35144    12060.887 
    3150    303.31292    214.75005   -3158.3349   -2707.1799    90.409251    12063.682 
    3200    294.31962    214.44428   -3148.1427   -2710.3645    390.26077    12066.277 
    3250    291.12371    214.31535   -3143.8451   -2710.8206    471.05464    12068.813 
    3300    306.76267    214.82565   -3160.8549   -2704.5687    42.646632    12071.321 
    3350    314.09789    214.97738   -3165.9126   -2698.7158   -187.18064    12073.604 
    3400    310.42479    214.92511   -3164.1702   -2702.4369   -315.66655    12075.525 
    3450    301.75478    214.62804   -3154.2679   -2705.4306   -134.56692    12077.043 
    3500    286.36293     214.0973   -3136.5768   -2710.6336    380.54907    12078.263 
    3550    304.04734    214.61582   -3153.8606   -2701.6133   -128.76637    12079.376 
    3600      311.545     214.9718   -3165.7266   -2702.3271   -457.18121    12080.182 
    3650    300.47166    214.64179   -3154.7263   -2707.7975   -124.18691    12080.501 
    3700    288.13662    214.23623   -3141.2076   -2712.6262    303.19243    12080.509 
    3750    302.29926    214.71392   -3157.1306   -2707.4834   -54.913568    12080.382 
    3800    296.69745    214.57294   -3152.4314   -2711.1164    82.654296    12080.003 
    3850    297.47866    214.53662   -3151.2207   -2708.7438    197.78282    12079.417 
    3900    298.20045    214.56089   -3152.0298   -2708.4792    223.10435    12078.687 
    3950    300.58303    214.79181    -3159.727   -2712.6325    38.871246    12077.808 
    4000     303.1065    214.76731   -3158.9104   -2708.0625   -45.511997    12076.687 
    4050     296.3269    219.63442   -3154.4807   -2713.7169    107.47451    12075.297 
    4100    286.16429    219.30721   -3143.5736   -2717.9259    365.92611    12073.746 
    4150     309.4845    219.98982   -3166.3273   -2705.9925   -278.91668    12072.087 
    4200    294.97069    219.48451   -3149.4835    -2710.737    154.32701    12070.092 
    4250    275.06665    218.83842   -3127.9474   -2718.8066    719.46534     12067.95 
    4300    297.92771    219.60339   -3153.4465   -2710.3016    80.268306    12065.898 
    4350    315.23353    220.20862   -3173.6206   -2704.7346   -415.27182    12063.664 
    4400    303.82847    219.80195   -3160.0649   -2708.1431    4.2643234    12060.996 
    4450    285.61388    219.18564   -3139.5214   -2714.6923    627.00557      12058.1 
    4500    301.27524    219.70084   -3156.6946   -2708.5706    215.45705    12055.248 
    4550    307.38107    219.79801   -3159.9336   -2702.7275    113.43379    12052.289 
    4600    299.08032    219.59482   -3153.1608   -2708.3015    417.11667    12049.167 
    4650    307.29252     219.8721   -3162.4032   -2705.3289    253.09007    12045.995 
    4700    312.76355    220.14017    -3171.339   -2706.1269    75.275286    12042.719 
    4750    309.80253      219.969   -3165.6334   -2704.8256    250.04392    12039.242 
    4800    304.30712    219.76312   -3158.7708    -2706.137    398.39516     12035.65 
    4850    310.02164    219.93336   -3164.4452   -2703.3115    208.32527    12031.992 
    4900    288.54104    219.25094   -3141.6979   -2712.5149    846.48462    12028.243 
    4950    295.63239      219.437      -3147.9   -2708.1692    754.45542    12024.652 
    5000    306.83034     219.8281   -3160.9368   -2704.5499    551.99234    12021.207 
    5050    311.72161     215.0862     -3169.54   -2705.8778    513.53585    12017.816 
    5100    312.35544    215.17092    -3172.364    -2707.759    465.51093    12014.428 
    5150    303.98363     214.8433   -3161.4433   -2709.2906    725.34281    12011.038 
    5200    310.78267    215.12444   -3170.8145   -2708.5489    559.60693    12007.739 
    5250    292.01531    214.52669   -3150.8897    -2716.539    1040.2366    12004.524 
    5300    302.25205    214.87885   -3162.6283   -2713.0513    723.26017    12001.558 
    5350    314.64532    215.20029   -3173.3429   -2705.3318    452.14857    11998.716 
    5400    299.96594    214.72923    -3157.641   -2711.4644     818.8719    11995.892 
    5450    314.54231    215.26718   -3175.5727   -2707.7149    369.32379    11993.175 
    5500    294.36146    214.60184   -3153.3946   -2715.5542    970.77674    11990.457 
    5550    295.06248    214.58011   -3152.6704   -2713.7874    978.40982    11987.965 
    5600    317.38687    215.36303   -3178.7677   -2706.6788    381.19284    11985.702 
    5650    315.56443    215.34036   -3178.0119   -2708.6337    465.03898    11983.403 
    5700    310.65204    215.26667   -3175.5555   -2713.4842    599.32632     11981.07 
    5750    306.80613     215.1763   -3172.5434   -2716.1925    685.29848    11978.789 
    5800    306.58745    215.10436   -3170.1452   -2714.1196    749.92718    11976.597 
    5850    292.50595    214.71017   -3157.0058   -2721.9254    1128.1589    11974.552 
    5900    287.29471    214.67116   -3155.7054   -2728.3763    1259.7553    11972.844 
    5950    295.89561    214.98084    -3166.028   -2725.9057    993.26027    11971.536 
    6000    312.21822    215.53487   -3184.4956   -2720.0946    446.69696    11970.487 
    6050    319.74959    210.81661    -3193.887   -2718.2837    123.80918    11969.418 
    6100     303.5382    210.48426   -3182.8086   -2731.3186    412.02446    11968.162 
    6150     306.4387    210.59373   -3186.4577   -2730.6533    351.19649    11966.823 
    6200    286.94305    210.00248   -3166.7495   -2739.9434    845.66369    11965.445 
    6250     294.4648    210.31255    -3177.085    -2739.091    609.98653    11964.186 
    6300     292.1657    210.30123   -3176.7077   -2742.1334    526.37802    11963.012 
    6350    303.88022    210.73669    -3191.223   -2739.2242    73.384478    11961.821 
    6400     288.0934    210.27633   -3175.8776   -2747.3605    522.70663    11960.454 
    6450    299.33063    210.66973   -3188.9911   -2743.7595    252.89259    11959.053 
    6500      304.025    210.92453   -3197.4844   -2745.2703    145.10905    11957.527 
    6550    286.56778    210.40599   -3180.1997   -2753.9519    621.22932    11955.848 
    6600    296.96696    210.69618   -3189.8726   -2748.1567    265.43648     11954.18 
    6650    282.21548    210.33275   -3177.7584   -2757.9842    538.04307    11952.437 
    6700    301.00854    210.98435   -3199.4785   -2751.7511    89.651449    11950.664 
    6750    291.05553     210.6859   -3189.5302   -2756.6071    387.27595    11948.723 
    6800    299.07203    210.94786   -3198.2619   -2753.4149    159.27491     11946.67 
    6850    302.12744    211.03694   -3201.2313   -2751.8397    69.181599    11944.449 
    6900    290.29716    210.65305   -3188.4351     -2756.64    428.67409    11942.026 
    6950    293.28893    210.86123   -3195.3744   -2759.1293    329.12709    11939.517 
    7000    284.77025    210.64625   -3188.2083   -2764.6342    581.35326     11936.95 
    7050    290.49895    205.83862   -3194.6208   -2762.5256    477.14782    11934.412 
    7100    305.46494    206.21892   -3207.2974   -2752.9414    78.278936    11931.818 
    7150    303.61252    206.24979   -3208.3264   -2756.7258    92.608935    11928.985 
    7200    294.07361    206.07202   -3202.4008   -2764.9886    307.75977    11925.925 
    7250    285.24169    205.76026   -3192.0085   -2767.7332    570.22408    11922.752 
    7300    284.94229    205.71462   -3190.4874   -2766.6574    601.72641    11919.593 
    7350    284.95908    205.70004   -3190.0013   -2766.1462    555.31315    11916.482 
    7400    306.34631    206.41795   -3213.9316   -2758.2647   -9.8866733    11913.348 
    7450    303.57104    206.28543   -3209.5142   -2757.9753    104.78602    11909.969 
    7500    309.34314    206.46812   -3215.6041   -2755.4796    63.950425    11906.303 
    7550    297.42605    206.07631   -3202.5438   -2760.1451    588.02356    11902.414 
    7600    304.35582    206.30967   -3210.3224   -2757.6162    504.04993    11898.508 
    7650    291.44901    205.97786   -3199.2621   -2765.7538    854.47767    11894.602 
    7700      284.327    205.69152   -3189.7175   -2766.8026    1074.0157    11890.857 
    7750    296.76743     206.1406   -3204.6866   -2763.2676     697.5407     11887.36 
    7800    293.67971    205.99139   -3199.7129   -2762.8866     822.6288    11883.978 
    7850    305.06555     206.4156   -3213.8534   -2760.0915    513.33838    11880.699 
    7900    289.92948    205.99139   -3199.7129   -2768.4648    947.74153    11877.435 
    7950    293.96785    206.06277   -3202.0923   -2764.8374    937.61987    11874.348 
    8000    314.70269    206.65079    -3221.693   -2753.5966    400.01253    11871.433 
    8050    294.87866    206.10194   -3203.3981   -2764.7884    937.41276     11868.49 
    8100    283.77877     205.7017   -3190.0566   -2767.9571    1262.9637    11865.745 
    8150    316.74454    206.73453   -3224.4842   -2753.3507     420.3883    11863.306 
    8200    308.38749    206.50132   -3216.7107   -2758.0077    748.67981    11860.853 
    8250    297.60811     206.2144   -3207.1467   -2764.4772    1118.8744    11858.501 
    8300    304.93573    206.41242   -3213.7475   -2760.1787     870.7502    11856.409 
    8350    299.40351    206.21599   -3207.1997   -2761.8596    969.60771    11854.517 
    8400     296.7412    206.07241   -3202.4136   -2761.0336    1072.3924    11852.842 
    8450     296.8865    206.21169   -3207.0563   -2765.4601    997.71223    11851.429 
    8500    298.33009    206.25633   -3208.5445    -2764.801    978.50021    11850.258 
    8550    301.82246    206.25703   -3208.5675   -2759.6295    993.33874    11849.319 
    8600    311.33384    206.54944   -3218.3146   -2755.2291    698.53621    11848.602 
    8650    304.14024    206.35454   -3211.8178   -2759.4323    948.53129     11847.97 
    8700    279.03027    205.57944   -3185.9814    -2770.945    1729.1399    11847.598 
    8750    303.13243    206.35783   -3211.9278   -2761.0412    1071.2496    11847.756 
    8800     296.9417    206.19984   -3206.6614   -2764.9831    1171.9371    11848.242 
    8850     308.6923    206.52948   -3217.6494    -2758.493     895.2837    11849.024 
    8900    291.73374    205.96705   -3198.9017   -2764.9699    1387.0736    11850.039 
    8950    293.80387    206.12214   -3204.0714   -2767.0604    1311.7259    11851.449 
    9000    296.66177     206.1544   -3205.1466   -2763.8847    1159.1486    11853.274 
    9050    301.37169    201.25113    -3208.371   -2760.1035     984.8242    11855.436 
    9100    303.46055    201.37194    -3212.398   -2761.0234    849.97085    11857.825 
    9150    316.21577    201.64723   -3221.5744   -2751.2274    543.53002    11860.355 
    9200    300.08406    201.26783   -3208.9277   -2762.5754    872.96944    11862.911 
    9250    306.32399    201.41751   -3213.9169   -2758.2831    633.46044    11865.609 
    9300    323.08065    201.95853    -3231.951    -2751.393    112.15408     11868.34 
    9350    296.28634    201.14167   -3204.7224   -2764.0189    873.27812    11870.905 
    9400     298.5026    201.20339   -3206.7797   -2762.7797    843.49202    11873.588 
    9450    306.41592    201.43201   -3214.4005     -2758.63    538.53517    11876.426 
    9500    302.53298    201.29284   -3209.7613   -2759.7664    568.17142    11879.283 
    9550    296.04596    201.14408   -3204.8026   -2764.4567    716.56749     11882.16 
    9600    293.26086    200.96073   -3198.6911   -2762.4878     864.4975     11885.14 
    9650    297.14556    201.10694   -3203.5646    -2761.583    705.51464    11888.284 
    9700    300.63003    201.23749   -3207.9162   -2760.7518    472.46368    11891.515 
    9750    283.15488    200.76927    -3192.309   -2771.1375    866.97103    11894.761 
    9800    311.34929    201.65501   -3221.8337   -2758.7253    76.052952    11898.119 
    9850     305.5009    201.42858   -3214.2861   -2759.8767     104.9759    11901.296 
    9900    300.33066    201.44557   -3214.8525   -2768.1334      121.752    11904.232 
    9950    296.64461    201.27922   -3209.3073   -2768.0709    260.38777    11906.973 
   10000    286.16747    200.94209   -3198.0697   -2772.4172     561.3414    11909.593 
   10050    287.27847    205.98723   -3199.5745   -2772.2695    388.64706    11912.227 
   10100    284.98639    205.86028   -3195.3426   -2771.4469    428.54463    11914.821 
   10150    300.64588    206.25072   -3208.3572   -2761.1693     117.3334    11917.363 
   10200    296.10897    206.25974   -3208.6581   -2768.2184    237.85322    11919.727 
   10250    294.26192     206.2409   -3208.0301   -2770.3378    191.42145     11921.95 
   10300    303.77883     206.5595   -3218.6501   -2766.8021   -163.90011        11924 
   10350    282.26049    205.90274    -3196.758   -2776.9169    416.73055    11925.753 
   10400    281.95554    205.91054    -3197.018   -2777.6305    377.78195     11927.44 
   10450    286.38678    206.06962   -3202.3206   -2776.3419    162.92274    11929.061 
   10500    286.57122    205.99438   -3199.8126   -2773.5597    160.16064    11930.529 
   10550    296.55833    206.37252   -3212.4174   -2771.3094   -126.60348    11931.796 
   10600    288.70178    206.18346   -3206.1153   -2776.6933    33.096276    11932.758 
   10650    297.03444    206.47416   -3215.8054   -2773.9892   -197.42371    11933.444 
   10700    287.56712    206.19461   -3206.4869   -2778.7526    13.321876    11933.787 
   10750    286.81198     206.0703   -3202.3434   -2775.7324    24.093077    11933.866 
   10800    293.89173    206.18878   -3206.2926    -2769.151   -112.24712    11933.682 
   10850    294.04593    206.32317   -3210.7724   -2773.4013   -68.050617     11933.16 
   10900    281.90054    205.96866   -3198.9553   -2779.6496    302.55952    11932.368 
   10950    280.61012    205.99994   -3199.9978   -2782.6116    281.00419    11931.445 
   11000    279.35896     205.8992     -3196.64   -2781.1147    335.49891    11930.414 
   11050    294.93502    201.33199   -3211.0662   -2772.3727   -17.838023    11929.242 
   11100    273.57007    200.62258   -3187.4192   -2780.5045    584.83529    11927.843 
   11150      301.505    201.44711   -3214.9037   -2766.4378   -134.99395    11926.384 
   11200    296.92625     201.2469   -3208.2299   -2766.5747    23.239032    11924.611 
   11250    303.01176    201.47185   -3215.7285   -2765.0215   -107.00915    11922.528 
   11300    303.93874    201.51042    -3217.014   -2764.9281   -120.93433    11920.102 
   11350    292.03244    201.13318   -3204.4394   -2770.0633    197.18767    11917.317 
   11400    290.33992    201.07654   -3202.5514   -2770.6927    301.96895     11914.31 
   11450    284.12515    200.89433   -3196.4777    -2773.863    525.30388    11911.177 
   11500    294.60419    201.15729   -3205.2431   -2767.0417    230.00235    11907.981 
   11550    313.29199    201.70085   -3223.3617   -2757.3636   -245.82557    11904.571 
   11600    297.35149     201.2191   -3207.3033   -2765.0155     223.8716    11900.783 
   11650    298.39775    201.37624   -3212.5412   -2768.6972    202.31637    11896.747 
   11700     273.4321    200.57301    -3185.767   -2779.0574    1023.7322    11892.554 
   11750    301.83729    201.40483   -3213.4945   -2764.5344    443.98855    11888.514 
   11800     307.3457    201.59366   -3219.7886   -2762.6352    251.66493    11884.427 
   11850    294.40986    201.13587   -3204.5289   -2766.6166    739.32082    11880.188 
   11900     294.2759    201.04038    -3201.346    -2763.633    960.89477     11876.01 
   11950    294.69584    201.01502   -3200.5005   -2762.1628    1063.9814    11872.001 
   12000    297.88672    201.13066   -3204.3552   -2761.2713    942.15248    11868.224 
   12050     307.8717    201.37724   -3212.5748    -2754.639    725.53444    11864.616 
   12100    297.03584    201.06036    -3202.012   -2760.1937    1081.4318     11861.09 
   12150    314.12548    201.51588   -3217.1961   -2749.9583    723.18963    11857.754 
   12200     306.9759    201.28195   -3209.3982   -2752.7949     954.4314    11854.514 
   12250    309.86154    201.38937   -3212.9791   -2752.0835    922.63911    11851.428 
   12300     319.7926    201.60666   -3220.2221   -2744.5549     730.8382    11848.473 
   12350    307.84269    201.28144   -3209.3813   -2751.4886    1042.9483    11845.603 
   12400    301.49559    201.07822   -3202.6073   -2754.1555     1302.486    11842.946 
   12450    305.69363      201.073   -3202.4335   -2747.7374    1371.5765    11840.628 
   12500     314.2471    201.30108   -3210.0361   -2742.6173    1236.8793    11838.697 
   12550    314.68601    201.37912   -3212.6373   -2744.5657    1205.9748    11837.077 
   12600    302.66913    201.00414   -3200.1381   -2749.9407     1538.451    11835.784 
   12650    304.62043    200.99663   -3199.8876   -2746.7877    1558.9017    11834.958 
   12700    306.89209    201.05872   -3201.9573   -2745.4785    1491.7319    11834.623 
   12750    316.68094    201.41019   -3213.6729    -2742.634    1211.3294    11834.749 
   12800    311.30194    201.21849    -3207.283    -2744.245    1347.9335    11835.225 
   12850     309.4926      201.081   -3202.6999   -2742.3531    1405.2926    11836.081 
   12900    314.75746    201.23541   -3207.8468    -2739.669    1258.4857    11837.358 
   12950    317.02635    201.32586   -3210.8621   -2739.3094    1166.2702    11838.991 
   13000    307.00306     200.9957   -3199.8565   -2743.2127    1437.5839    11840.956 
   13050    311.49852    206.16809   -3205.6031   -2742.2727    1409.1183    11843.356 
   13100    293.20981    205.52623   -3184.2075   -2748.0801    1984.7806    11846.262 
   13150    297.02683    205.72333   -3190.7776   -2748.9727     1708.232    11849.899 
   13200    312.97817    206.13286   -3204.4287   -2738.8974    1182.3208    11854.162 
   13250    314.29026    206.22545   -3207.5152   -2740.0322    1061.0558    11858.808 
   13300    314.17086    206.10256   -3203.4188   -2736.1135    1086.9312    11863.756 
   13350    301.99429    205.79076   -3193.0254   -2743.8317    1257.3839    11869.028 
   13400    301.81698    205.79559   -3193.1863   -2744.2564    1103.8477      11874.7 
   13450    310.92475    206.08105   -3202.7017   -2740.2247    706.34729    11880.712 
   13500    303.58945    205.80034   -3193.3446   -2741.7783    872.46592    11886.888 
   13550    305.10726    205.93879   -3197.9598   -2744.1359    850.53842    11893.265 
   13600    306.56948    205.86281    -3195.427   -2739.4281    807.83941    11899.884 
   13650    300.59318     205.6666   -3188.8867   -2741.7771    795.69631    11906.711 
   13700    309.08039    205.94497   -3198.1658   -2738.4321    485.65098    11913.712 
   13750    290.87039    205.51421   -3183.8071   -2751.1594    874.11938    11920.804 
   13800    303.87467    205.80143   -3193.3811   -2741.3906     424.1058      11928.1 
   13850    319.49939    206.23664   -3207.8879   -2732.6568   -97.738885    11935.388 
   13900    288.84898    205.30505   -3176.8351   -2747.1942    606.65294    11942.486 
   13950    302.56321    205.79447   -3193.1491   -2743.1093    158.66799     11949.61 
   14000     291.3505    205.46273   -3182.0909   -2748.7291    417.10847    11956.656 
   14050    289.12046    205.23638    -3174.546   -2744.5013    546.04973     11963.71 
   14100    297.61327    205.60542   -3186.8472     -2744.17    234.13666    11970.819 
   14150     305.8857     205.8259   -3194.1965   -2739.2147   -127.52425    11977.832 
   14200     290.5173    205.39949   -3179.9831   -2747.8606    117.88508    11984.594 
   14250    295.44074    205.60956   -3186.9853   -2747.5396   -57.009974    11991.183 
   14300    292.83238    205.56163   -3185.3877   -2749.8217   -75.482693    11997.545 
   14350    298.51839    205.67304   -3189.1014    -2745.078   -311.14942    12003.621 
   14400    294.48792     205.6219   -3187.3968   -2749.3684   -329.04772    12009.334 
   14450    301.26163    205.90208   -3196.7361   -2748.6323   -571.55693    12014.624 
   14500     295.9998    205.72469   -3190.8229   -2750.5456   -407.64751    12019.396 
   14550    287.02666     205.4587   -3181.9566   -2755.0262   -238.07842    12023.721 
   14600    282.04144    205.31408    -3177.136   -2757.6207   -216.65295    12027.674 
   14650    289.61957     205.4968   -3183.2267   -2752.4396   -512.32411    12031.267 
   14700    296.99043    205.76005   -3192.0015   -2750.2507   -803.69184    12034.345 
   14750    293.99384     205.6279   -3187.5967   -2750.3031   -751.69167    12036.771 
   14800    293.00405    205.60155   -3186.7182   -2750.8969   -695.28907    12038.531 
   14850    282.03482    205.32946   -3177.6485   -2758.1431   -416.16456     12039.65 
   14900    276.25919    205.13912   -3171.3041   -2760.3895   -333.85136    12040.295 
   14950    286.33833    205.43474   -3181.1581   -2755.2515   -640.04379    12040.493 
   15000    300.15007    205.76225   -3192.0751   -2745.6246   -967.41845    12040.065 
   15050    282.80699    205.29504   -3176.5014   -2755.8475   -582.32768    12038.881 
   15100    299.39428    205.84876   -3194.9588   -2749.6325   -951.62588    12037.035 
   15150    283.08206    205.35727   -3178.5756   -2757.5125   -445.47056     12034.44 
   15200    284.91958    205.45024   -3181.6745   -2757.8783   -453.46231     12031.28 
   15250    288.25467    205.50866   -3183.6221   -2754.8651   -543.68284    12027.585 
   15300    284.44523    205.37928   -3179.3092   -2756.2185   -462.24058    12023.294 
   15350    292.02628    205.71862   -3190.6207   -2756.2537   -693.88048    12018.425 
   15400    294.78995    205.76458   -3192.1527    -2753.675   -638.08366    12012.883 
   15450    293.67141     205.6947   -3189.8234   -2753.0094   -382.79842    12006.682 
   15500    284.61692    205.52647   -3184.2156   -2760.8695   -95.630676    11999.957 
   15550    294.03908    205.78302   -3192.7675   -2755.4066   -301.92882    11992.824 
   15600    301.27292    206.02794   -3200.9314   -2752.8107    -501.9673    11985.205 
   15650    294.14702     205.8213   -3194.0434    -2756.522   -164.39775    11976.994 
   15700    291.45809    205.80365    -3193.455   -2759.9332    10.884807    11968.341 
   15750    292.31928    205.73938   -3191.3126   -2756.5098    66.297449    11959.343 
   15800    288.01583    205.75161   -3191.7203   -2763.3186    205.67638     11950.03 
   15850    293.99666    205.91897    -3197.299   -2760.0013    174.99863    11940.464 
   15900    289.69921    205.84865   -3194.9549   -2764.0493     378.8412    11930.648 
   15950    281.20848    205.50888   -3183.6293    -2765.353    811.19353    11920.696 
   16000    289.91085    205.71048   -3190.3492   -2759.1288    745.58539    11910.799 
   16050    310.59394    206.28264   -3209.4212   -2747.4362    263.20509    11900.906 
   16100    301.61331    206.07615   -3202.5383   -2753.9114    588.85379    11890.817 
   16150    291.88552    205.78196   -3192.7321   -2758.5745     1064.642      11880.7 
   16200    298.78491    206.03801    -3201.267    -2756.847    1090.2616    11870.755 
   16250    299.18189    206.02598   -3200.8661   -2755.8557    1251.4522    11861.035 
   16300    310.61609    206.36754   -3212.2513   -2750.2334    1078.6559     11851.59 
   16350    299.87874    205.93056   -3197.6854   -2751.6385    1476.5844    11842.381 
   16400    305.44025    206.14626   -3204.8754   -2750.5562    1428.1968    11833.554 
   16450    300.12546    205.89838   -3196.6126   -2750.1988    1723.4834    11825.133 
   16500     302.8706    205.95532   -3198.5106   -2748.0135    1756.3255     11817.25 
   16550    316.34033    206.36171   -3212.0572   -2741.5249    1460.6926    11809.908 
   16600    310.32297    206.12836   -3204.2787   -2742.6968    1763.8324    11802.999 
   16650    320.44202    206.42321    -3214.107   -2737.4738    1673.5861    11796.621 
   16700    311.92799    206.18027    -3206.009   -2742.0397    1956.4689    11790.772 
   16750     311.4848    206.25382   -3208.4607   -2745.1507     1941.189    11785.581 
   16800     307.6425     206.1417   -3204.7233   -2747.1284    2107.0512    11781.088 
   16850    320.08221    206.48322   -3216.1074   -2740.0094    1853.9868    11777.331 
   16900    316.52494    206.31694   -3210.5645   -2739.7577    2070.1162    11774.233 
   16950    312.28177    206.19565   -3206.5218   -2742.0263    2208.5906    11771.871 
   17000     307.8046    206.11282   -3203.7605   -2745.9245    2265.3757    11770.336 
   17050    325.32917    201.64716    -3221.572   -2737.6695     1869.021    11769.627 
   17100    316.73829    201.37875   -3212.6251   -2741.5009    2139.3227    11769.601 
   17150    312.54408    201.17488   -3205.8294   -2740.9438    2283.8565    11770.334 
   17200     331.6779    201.69684    -3223.228   -2729.8823    1778.6664     11771.89 
   17250    329.47786    201.64762   -3221.5873    -2731.514    1772.3906     11774.08 
   17300    325.12746    201.51983   -3217.3276   -2733.7252    1914.9083    11776.879 
   17350    307.93946    201.08753   -3202.9175   -2744.8809    2307.1243    11780.391 
   17400    313.49267    201.25202   -3208.4005   -2742.1039    2052.6677    11784.779 
   17450    316.84176    201.32591   -3210.8637   -2739.5856    1807.1301    11789.964 
   17500    310.34012    201.19938   -3206.6462   -2745.0387    1846.9249    11795.816 
   17550    305.21902    201.10514   -3203.5046   -2749.5144    1984.5446    11802.374 
   17600    312.65742    201.27457   -3209.1525   -2744.0983     1722.178    11809.705 
   17650    332.36936     201.8516   -3228.3865   -2734.0123    991.86168    11817.652 
   17700    303.17467    201.07372   -3202.4575   -2751.5081    1500.9566    11825.957 
   17750     322.5578    201.69417   -3223.1391   -2743.3589    883.78069    11834.725 
   17800    299.02306    201.08702   -3202.9006   -2758.1264    1318.6178    11843.796 
   17850     294.5849    201.03223   -3201.0743   -2762.9016    1241.1176    11853.311 
   17900    311.59653    201.53235   -3217.7451   -2754.2689    632.77105    11863.242 
   17950    307.21325    201.46794   -3215.5981   -2758.6417    642.10973    11873.317 
   18000    299.58858    201.16107   -3205.3691   -2759.7538    744.23252    11883.515 
   18050    299.04617    201.18339   -3206.1129   -2761.3044    561.00622    11893.875 
   18100    294.18423    201.14184   -3204.7281   -2767.1513     510.7092    11904.334 
   18150    281.45607     200.8225   -3194.0834   -2775.4388    593.46943    11914.881 
   18200    302.77672    201.43033   -3214.3445    -2763.987     -175.865    11925.495 
   18250    295.22759    201.19923    -3206.641   -2767.5123   -225.09249    11935.869 
   18300     301.5624    201.47598   -3215.8659   -2767.3147   -525.37616    11945.899 
   18350    284.62386    200.94396   -3198.1322   -2774.7757   -61.230275     11955.49 
   18400    285.74484    200.92116   -3197.3719   -2772.3481    -211.0459    11964.812 
   18450    283.91624    200.96371   -3198.7903   -2776.4864   -360.45888    11973.835 
   18500    286.71611    200.98731   -3199.5771   -2773.1086   -542.30834    11982.444 
   18550    289.32203    201.15182   -3205.0608   -2774.7162   -753.09625    11990.549 
   18600    276.88392    200.82428   -3194.1427   -2782.2988    -535.5514    11998.067 
   18650    289.49292    201.13142   -3204.3807   -2773.7819   -878.68144    12005.054 
   18700    281.05933    200.94516   -3198.1721   -2780.1176   -744.45863    12011.393 
   18750    275.76909    200.66543   -3188.8475   -2778.6619   -554.78114    12017.098 
   18800    286.07214    201.00218   -3200.0726    -2774.562   -852.35343    12022.251 
   18850    285.67478    200.98112   -3199.3707   -2774.4512   -986.11711    12026.736 
   18900    283.20168    200.80586   -3193.5287   -2772.2877   -1001.5308    12030.442 
   18950    281.03354     200.7641   -3192.1367   -2774.1206   -961.86567    12033.358 
   19000    283.00071    200.85191   -3195.0636   -2774.1215   -1048.5569    12035.506 
   19050    287.68216    205.99448    -3199.816   -2771.9106   -1104.9184    12036.823 
   19100    274.64623    205.54297   -3184.7658   -2776.2503   -656.74813    12037.323 
   19150    274.19507    205.60407   -3186.8024    -2778.958   -688.55178    12037.201 
   19200    282.46046    205.81862   -3193.9539   -2773.8154   -912.02022    12036.442 
   19250    283.44554    205.84778   -3194.9262   -2773.3224   -1003.1878     12034.94 
   19300    287.50542    206.00157   -3200.0524   -2772.4099   -1123.0185    12032.609 
   19350    274.61002    205.52513   -3184.1711   -2775.7095   -686.95414    12029.425 
   19400    277.62903     205.6321   -3187.7365   -2774.7844   -695.59377    12025.571 
   19450    281.91225    205.78344   -3192.7814   -2773.4583   -713.91776     12021.06 
   19500    279.45294    205.69907   -3189.9691   -2774.3041    -569.2928    12015.892 
   19550    298.26886     206.1224     -3204.08   -2760.4276   -965.74715    12010.088 
   19600    295.40499     206.0126   -3200.4199   -2761.0274   -745.56112    12003.484 
   19650    283.79089    205.65907   -3188.6356   -2766.5182   -277.80033    11996.182 
   19700    285.56551    205.81292   -3193.7639   -2769.0068   -189.28234    11988.399 
   19750     293.8473    206.00353   -3200.1176    -2763.042   -271.03051    11980.186 
   19800    289.22682    205.80697   -3193.5657   -2763.3627   -29.207199    11971.524 
   19850    281.85482    205.55362   -3185.1207    -2765.883    305.12735    11962.515 
   19900     290.6263    205.80884    -3193.628   -2761.3434    168.64031    11953.324 
   19950    297.15424    205.97996   -3199.3321   -2757.3377    162.89782    11943.893 
   20000    292.35697    205.78901   -3192.9672   -2758.1083    478.15401    11934.223 
   20050    294.50587    205.85071   -3195.0238   -2756.9686    438.43673    11924.466 
   20100    300.51927    206.05171   -3201.7235   -2754.7239    413.07551     11914.61 
   20150    293.84709    205.82513   -3194.1709   -2757.0956    792.47789    11904.674 
   20200    307.95621    206.31134   -3210.3779   -2752.3164    580.30979     11894.78 
   20250    303.63149     206.1597   -3205.3233   -2753.6945    875.04241    11884.881 
   20300    300.79493    206.00745   -3200.2483   -2752.8387    1036.1539    11875.107 
   20350    302.35507    205.99975   -3199.9917   -2750.2614     1097.494    11865.528 
   20400    303.99493    206.07818   -3202.6059   -2750.4365    1236.7823     11856.19 
   20450     303.9717    206.04754   -3201.5846   -2749.4497    1420.8056    11847.179 
   20500    307.77262    206.24636   -3208.2121   -2750.4237    1320.1805     11838.55 
   20550    301.22302    206.03914   -3201.3047   -2753.2583    1539.3561    11830.307 
   20600    305.67628    206.05925   -3201.9749   -2747.3046    1548.2512    11822.529 
   20650    322.25977    206.60052   -3220.0173   -2740.6803    1169.1869    11815.192 
   20700    306.23723    206.15572   -3205.1907   -2749.6861    1772.9327    11808.191 
   20750    312.46752     206.3872   -3212.9066   -2748.1348    1735.1907    11801.748 
   20800    311.22607    206.33254   -3211.0848   -2748.1596    1811.0972    11795.884 
   20850      304.248    206.10338   -3203.4461   -2750.9003    2159.5978    11790.639 
   20900    316.87075    206.47272   -3215.7573    -2744.436    1946.5449    11786.172 
   20950    321.32507    206.58716    -3219.572   -2741.6253     1838.213    11782.412 
   21000    317.75074    206.47837   -3215.9457   -2743.3156    1972.3985    11779.281 
   21050     313.0178    201.38673   -3212.8909   -2747.3006    2051.2759    11776.858 
   21100    328.86325    201.81674   -3227.2247   -2738.0655    1541.1611    11775.138 
   21150    319.45021    201.61591   -3220.5302   -2745.3722     1819.906    11773.915 
   21200     299.8807     201.0574   -3201.9132   -2755.8634    2324.0315    11773.327 
   21250    317.37455    201.55077   -3218.3589   -2746.2883    1830.5073    11773.559 
   21300    309.58034    201.33626   -3211.2087   -2750.7314    1952.4714    11774.462 
   21350     311.4707    201.45282   -3215.0939   -2751.8048    1821.7969    11776.047 
   21400    296.28729    201.10659   -3203.5531   -2762.8482    2262.0171    11778.298 
   21450     305.2165    201.31204   -3210.4014    -2756.415    2006.6696    11781.392 
   21500    315.02473    201.58882   -3219.6274    -2751.052    1591.5564    11785.228 
   21550    306.88514    201.42798   -3214.2659   -2757.7975    1683.5246    11789.612 
   21600    309.63841    201.51905   -3217.3016   -2756.7379    1515.7484    11794.587 
   21650    312.58097    201.64056    -3221.352   -2756.4115    1379.6037    11800.069 
   21700    301.96468    201.28563   -3209.5208   -2760.3713    1588.6633     11806.02 
   21750    316.95928    201.83658   -3227.8861   -2756.4331    1039.7213    11812.487 
   21800    300.00292    201.40682   -3213.5606    -2767.329    1351.8711     11819.28 
   21850    295.85168    201.31703   -3210.5678   -2770.5108     1312.955    11826.506 
   21900    302.64951    201.43979   -3214.6597   -2764.4915      1086.81    11834.146 
   21950    293.46897     201.1582   -3205.2733   -2768.7605    1206.3184    11842.126 
   22000    315.64145    201.84181   -3228.0602   -2758.5674    418.95602    11850.431 
   22050    306.66416    201.60377   -3220.1257    -2763.986    624.65438    11858.749 
   22100    295.45449    201.33563   -3211.1876   -2771.7214    843.11438    11867.151 
   22150    303.73573    201.53936   -3217.9787   -2766.1948    438.72216    11875.715 
   22200    291.97561     201.1298   -3204.3267   -2770.0351    656.38084    11884.317 
   22250    304.58886    201.57876    -3219.292   -2766.2392    221.35409    11892.978 
   22300    292.28665    201.19368    -3206.456   -2771.7017    376.73588    11901.556 
   22350    294.21039    201.26443   -3208.8144   -2771.1987    230.74764    11910.058 
   22400    286.70108    201.04743   -3201.5811    -2775.135    340.86921    11918.463 
   22450    286.14865    201.03204    -3201.068   -2775.4436    272.07388    11926.806 
   22500    281.37243    200.87599   -3195.8663   -2777.3461    351.50215    11935.067 
   22550    288.68178    201.09032   -3203.0107   -2773.6184     103.6699     11943.24 
   22600    289.98093    201.08695   -3202.8983   -2771.5736   -35.535154    11951.247 
   22650    296.24783    201.32024   -3210.6747   -2770.0285   -337.16865    11958.986 
   22700    301.66661    201.44455   -3214.8185   -2766.1123   -532.92336    11966.282 
   22750    287.46411     200.9699   -3198.9968   -2771.4157   -232.79614     11973.07 
   22800    287.01633    201.03595   -3201.1984   -2774.2834   -343.92731    11979.456 
   22850    289.45993    201.10353   -3203.4511   -2772.9014   -521.85782    11985.412 
   22900    285.24926    200.97812   -3199.2707    -2774.984   -561.43345    11990.853 
   22950    297.12176    201.31228   -3210.4093   -2768.4632   -897.77875      11995.7 
   23000    281.75082    200.78785   -3192.9285   -2773.8455   -448.58339    11999.852 
   23050    268.93217    205.45189   -3181.7296   -2781.7134   -103.73905    12003.503 
   23100    275.08547    205.59825   -3186.6082   -2777.4394   -259.93929    12006.823 
   23150    282.31881     205.7974   -3193.2467   -2773.3188   -510.41272    12009.766 
   23200    274.06031    205.56334   -3185.4445   -2777.8006   -364.40899    12012.216 
   23250    275.19894    205.62213   -3187.4042   -2778.0667   -482.79659    12014.209 
   23300    298.62323    206.37946   -3212.6486   -2768.4691   -1187.0076    12015.661 
   23350    287.18918    205.93718    -3197.906   -2770.7339    -795.9188    12016.278 
   23400    278.34786    205.59901   -3186.6338   -2772.6125   -501.88281    12016.199 
   23450    292.76616    205.95829   -3198.6097   -2763.1422    -737.5978    12015.558 
   23500    289.51722    205.80339   -3193.4463   -2762.8114   -539.96809     12014.28 
   23550    285.03712    205.66938   -3188.9794   -2765.0083   -358.62815    12012.423 
   23600     278.2939    205.42642   -3180.8806   -2766.9395   -22.941495    12010.105 
   23650    285.47325    205.66987   -3188.9958    -2764.376   -183.63707    12007.481 
   23700     281.7617     205.4606   -3182.0201   -2762.9209   -36.893129    12004.501 
   23750    276.69278    205.24873   -3174.9578   -2763.3983    112.92214    12001.226 
   23800     300.5823    205.97943   -3199.3144    -2752.221   -542.82227    11997.683 
   23850    301.82893    205.97515   -3199.1716    -2750.224   -516.28752    11993.602 
   23900    294.04294    205.74413    -3191.471   -2754.1044   -195.37613    11988.966 
   23950    285.29668    205.51332   -3183.7773   -2759.4201    129.07966    11983.926 
   24000    281.93341    205.33353   -3177.7844   -2758.4299    318.05195    11978.646 
   24050    292.22002    205.58669    -3186.223   -2751.5679    92.110776    11973.234 
   24100    302.82127    205.84709   -3194.9029   -2744.4792   -48.861143    11967.579 
   24150    301.65465    205.82503   -3194.1676   -2745.4791    158.24874    11961.613 
   24200    293.24512    205.59959    -3186.653   -2750.4732    472.39858    11955.433 
   24250     300.1328    205.76902   -3192.3008    -2745.876    359.98808    11949.177 
   24300     297.3984    205.66602   -3188.8674   -2746.5098    462.54544    11942.834 
   24350    304.82367    205.87991   -3195.9971    -2742.595    342.61717    11936.413 
   24400     296.0172    205.69381   -3189.7937   -2749.4905    596.17019    11929.904 
   24450    304.00523    205.94041   -3198.0136   -2745.8289    473.45254    11923.379 
   24500    294.84685    205.69902   -3189.9673    -2751.405    767.99518    11916.829 
   24550    302.74565    205.91363   -3197.1211   -2746.8099    692.07231     11910.34 
   24600    301.85258    205.89944    -3196.648   -2747.6652     851.8398    11903.936 
   24650    308.24106    206.07025   -3202.3415   -2743.8563    781.51622    11897.655 
   24700    292.62037    205.57215   -3185.7383   -2750.4877    1357.3563     11891.51 
   24750    304.55736    205.92885   -3197.6284   -2744.6224    1162.7946     11885.72 
   24800    305.91662    206.01049   -3200.3497    -2745.322    1100.8611    11880.248 
   24850    298.14934    205.72313   -3190.7711   -2747.2966    1335.0913    11875.064 
   24900    310.07265    206.05903   -3201.9676    -2740.758    1032.9917    11870.244 
   24950    310.98725    206.11481    -3203.827    -2741.257     992.6374    11865.684 
   25000    310.71993    206.06542   -3202.1807   -2740.0083    1042.7982    11861.329 
   25050       314.88    211.21582   -3207.1942    -2738.834    993.82189    11857.197 
   25100    300.65381    210.80614   -3193.5381   -2746.3383    1483.0196    11853.345 
   25150    313.42623    211.20137   -3206.7124   -2740.5147    1090.0629     11849.93 
   25200    299.81813    210.76645   -3192.2152   -2746.2584    1487.7105    11846.848 
   25250    302.70067    210.85268   -3195.0894   -2744.8451    1522.8351    11844.235 
   25300       289.54    210.44377   -3181.4591   -2750.7903    1993.6647     11842.18 
   25350    315.85791     211.2999   -3209.9968   -2740.1821    1279.7979     11840.81 
   25400    314.72119      211.258      -3208.6   -2740.4761    1224.7615    11839.874 
   25450    305.79374    211.03672   -3201.2239   -2746.3789    1446.7332      11839.3 
   25500    305.90656     210.9542   -3198.4735   -2743.4607    1433.4153    11839.194 
   25550    324.48815    211.69915   -3223.3049   -2740.6533    877.33744    11839.498 
   25600     301.5481    210.87385   -3195.7948   -2747.2649    1674.2321    11840.072 
   25650    312.06897    211.27802   -3209.2675   -2745.0885    1373.7942    11841.174 
   25700    304.61339     211.0878   -3202.9268   -2749.8375    1469.5541     11842.76 
   25750    307.14451    211.11389   -3203.7965   -2746.9423    1371.7377    11844.822 
   25800     307.1686    211.09418   -3203.1392   -2746.2492    1343.0195     11847.34 
   25850    307.48743    211.07322   -3202.4405   -2745.0763    1293.1772    11850.292 
   25900    294.56027    210.68907   -3189.6358   -2751.4997    1626.4981    11853.679 
   25950    309.14083    211.21168   -3207.0559   -2747.2323    1193.9857    11857.598 
   26000    292.19562    210.72563   -3190.8544   -2756.2355    1472.0855    11861.956 
   26050    311.44763    211.26068   -3208.6892   -2745.4345    851.96425    11866.783 
   26100    301.65234    211.00375    -3200.125   -2751.4401    1098.4676    11871.852 
   26150    291.78439    210.76904   -3192.3012   -2758.2941    1273.2845    11877.236 
   26200     301.2025     211.1343   -3204.4767   -2756.4608    829.46662    11883.031 
   26250    302.80778    211.14767   -3204.9223   -2754.5187    677.59076    11889.046 
   26300    300.23385     211.1129   -3203.7634   -2757.1883    605.31859    11895.173 
   26350    295.44936    210.95307   -3198.4355    -2758.977    562.94292    11901.404 
   26400      312.289    211.51952   -3217.3174   -2752.8111    32.487357    11907.659 
   26450    286.65944    210.74141   -3191.3803   -2764.9961    695.56005    11913.754 
   26500    291.68769    210.95233   -3198.4111   -2764.5477    475.46005    11919.933 
   26550    291.49924    210.98214   -3199.4047   -2765.8216    354.87346    11926.153 
   26600    292.22845    210.98018   -3199.3393   -2764.6716    203.51335     11932.32 
   26650    285.62713    210.80214   -3193.4046   -2768.5559    310.37306    11938.389 
   26700    300.53556    211.26205   -3208.7351   -2761.7112   -171.62201    11944.343 
   26750    295.09723    210.99596   -3199.8654   -2760.9306   -78.981715    11950.018 
   26800    291.47977    210.83822   -3194.6074   -2761.0533    29.033852    11955.402 
   26850    280.84191    210.54223   -3184.7409   -2767.0098    233.33458     11960.58 
   26900    283.44841    210.63536   -3187.8454   -2766.2374    90.298878     11965.62 
   26950    283.73699    210.68496   -3189.4987   -2767.4614   -12.293945    11970.495 
   27000    301.74015    211.25244   -3208.4147   -2759.5991   -614.17826    11975.098 
   27050    284.30496    210.73157   -3191.0524   -2768.1703   -180.75836    11979.185 
   27100    275.58323     210.3846   -3179.4866   -2769.5774    98.778861    11982.934 
   27150    288.21761    210.77027   -3192.3423   -2763.6404   -298.33215    11986.475 
   27200     288.7649    210.75124   -3191.7081   -2762.1922   -438.19782    11989.651 
   27250    293.26342     210.8743     -3195.81   -2759.6029   -561.84765    11992.344 
   27300    290.79626    210.79381   -3193.1269   -2760.5895   -363.72221    11994.517 
   27350    287.03894    210.78212   -3192.7372   -2765.7885   -243.62013    11996.251 
   27400    287.85401    210.73821   -3191.2738   -2763.1128   -210.74434    11997.597 
   27450    274.69678    210.30991   -3176.9971   -2768.4064    106.72869    11998.603 
   27500    281.27771      210.508      -3183.6   -2765.2208   -165.98962    11999.401 
   27550    291.20311    210.83799   -3194.5996   -2761.4571   -415.28142    11999.871 
   27600    281.03538    210.50072   -3183.3573   -2765.3385   -105.30779    11999.902 
   27650    292.49642    210.80567   -3193.5223    -2758.456   -440.59783    11999.591 
   27700     291.7957     210.8013   -3193.3767   -2759.3527   -419.66976    11998.803 
   27750    279.03483    210.39326   -3179.7752   -2764.7321   -31.214665    11997.554 
   27800    278.63929    210.39595   -3179.8649   -2765.4101    14.861039    11996.021 
   27850    292.72742     210.7713   -3192.3767   -2756.9668     -305.918    11994.224 
   27900    291.43716    210.69541   -3189.8469   -2756.3562   -142.91049    11992.028 
   27950    284.90931    210.46457   -3182.1522   -2758.3712    149.99071    11989.496 
   28000    292.85943    210.65877   -3188.6258   -2753.0195    52.501466    11986.764 
   28050    290.66273    205.47851    -3182.617   -2750.2782    215.47199    11983.801 
   28100    310.51233    205.97768   -3199.2561   -2737.3925   -211.12992     11980.62 
   28150    304.34164    205.76929   -3192.3096   -2739.6245    25.487117    11977.084 
   28200    294.05827    205.36238    -3178.746   -2741.3566    446.56494    11973.258 
   28250    290.56475    205.30252   -3176.7508   -2744.5578    636.27899    11969.365 
   28300    295.40864    205.48046   -3182.6819   -2743.2839    603.46243    11965.509 
   28350    310.50261    205.85021   -3195.0071    -2733.158    317.65749     11961.66 
   28400     309.6457    205.70262   -3190.0873   -2729.5128     455.7068    11957.715 
   28450      317.355    205.87308   -3195.7692   -2723.7277    303.21878    11953.686 
   28500    303.79949    205.53241   -3184.4136   -2732.5349     649.6577    11949.545 
   28550    301.82438    205.39327   -3179.7756   -2730.8347    762.32518    11945.431 
   28600    315.00274    205.79933   -3193.3112   -2724.7685    447.75055    11941.386 
   28650    315.81304    205.83182    -3194.394    -2724.646    527.88874    11937.288 
   28700    314.62402    205.63025   -3187.6749   -2719.6956    845.78157    11933.177 
   28750      305.456     205.3386   -3177.9534   -2723.6107    1227.2709    11929.219 
   28800    309.58688      205.429   -3180.9666   -2720.4796    1151.9564    11925.569 
   28850    307.13376    205.39972   -3179.9908   -2723.1526     1289.822    11922.229 
   28900    313.78896    205.60033   -3186.6777   -2719.9404    1215.7368    11919.246 
   28950    307.59791     205.3951   -3179.8366   -2722.3081    1401.8568    11916.634 
   29000    319.94954    205.71193   -3190.3977    -2714.497    1010.3079    11914.436 
   29050    323.30409    210.86625   -3195.5417   -2714.6514    877.35325    11912.476 
   29100      303.066    210.33248   -3177.7492   -2726.9615    1480.2916    11910.724 
   29150    319.77839    210.88657   -3196.2191   -2720.5729    982.24092    11909.409 
   29200    319.11877    210.75352   -3191.7839    -2717.119    977.96813    11908.367 
   29250     307.7087    210.45604   -3181.8681   -2724.1747    1273.3053    11907.565 
   29300    307.39133    210.38078   -3179.3593    -2722.138    1333.0324    11907.142 
   29350    315.00888    210.56701    -3185.567   -2717.0151    1174.6365    11907.123 
   29400    305.63355    210.34151   -3178.0504   -2723.4436     1394.326    11907.461 
   29450    300.51906    210.18316   -3172.7719   -2725.7726    1489.2781    11908.248 
   29500    307.28743    210.48326   -3182.7755   -2725.7087    1260.0323    11909.537 
   29550    310.07851    210.54172   -3184.7242   -2723.5059    1201.3397    11911.236 
   29600    307.69845     210.3961   -3179.8702    -2722.192    1266.2278    11913.297 
   29650    322.60435    210.88447   -3196.1489   -2716.2994    821.19516    11915.705 
   29700    306.18042    210.33848   -3177.9492    -2722.529    1194.5552    11918.333 
   29750    315.28479    210.76716   -3192.2388   -2723.2766    804.01926    11921.263 
   29800    311.91408    210.64456   -3188.1521   -2724.2035    764.93382    11924.379 
   29850    313.21409    210.73335   -3191.1116   -2725.2294     656.2203    11927.619 
   29900    302.59265    210.41825   -3180.6084   -2730.5247    926.10895    11930.973 
   29950    300.22284    210.35775   -3178.5915   -2732.0328    924.58221    11934.542 
   30000    310.67309    210.61568   -3187.1894   -2725.0867    560.10027    11938.315 
   30050    299.77643    205.29642   -3176.5474   -2730.6527    813.67088    11942.168 
   30100    310.86591    205.67698   -3189.2325    -2726.843     471.9377    11946.129 
   30150    301.31353    205.47054   -3182.3514   -2734.1704    674.04185    11950.104 
   30200    305.38201    205.57815   -3185.9383   -2731.7057    594.51013    11954.155 
   30250    312.41474    205.76944   -3192.3145   -2727.6213     323.2492    11958.236 
   30300    297.24272    205.28217   -3176.0722   -2733.9462    632.40799    11962.251 
   30350    312.81842    205.76648   -3192.2161   -2726.9224    156.96821    11966.279 
   30400    295.47531    205.31588    -3177.196   -2737.6989    505.94769    11970.179 
   30450    310.37554    205.72457   -3190.8191    -2729.159    72.097405    11974.019 
   30500    309.82887    205.75709   -3191.9031   -2731.0561    20.973151    11977.635 
   30550    294.37693    205.35759   -3178.5864    -2740.723    325.75018    11981.013 
   30600    303.90174    205.75627   -3191.8755   -2739.8447   -10.013908    11984.262 
   30650    290.15547    205.34445   -3178.1482    -2746.564    279.86314    11987.282 
   30700    299.73971    205.62458   -3187.4862   -2741.6461   0.27535458    11990.145 
   30750    294.31748    205.45299   -3181.7663   -2743.9913    77.596115    11992.779 
   30800      295.549    205.60211    -3186.737   -2747.1303   -51.026183    11995.177 
   30850    292.72123    205.49923   -3183.3077   -2747.9071   -43.471628    11997.298 
   30900    304.16519    205.78887   -3192.9625   -2740.5398   -362.09136    11999.109 
   30950    301.03982     205.7001   -3190.0033   -2742.2294   -222.87963    12000.483 
   31000    289.65584    205.35035   -3178.3449   -2747.5038    93.314914    12001.473 
   31050    299.51412    205.67261   -3189.0869   -2743.5824   -245.83085    12002.183 
   31100     294.3793    205.64237   -3188.0789    -2750.212    -191.1246    12002.512 
   31150    303.01887    205.97793   -3199.2642   -2748.5466   -474.12081    12002.446 
   31200    304.09394    205.90503   -3196.8343   -2744.5176     -449.523    12001.868 
   31250    286.43611    205.33362   -3177.7872   -2751.7352    156.97459    12000.801 
   31300    287.27724    205.34908   -3178.3026   -2750.9995    178.70821    11999.514 
   31350    287.91904    205.39599   -3179.8664   -2751.6087    122.16569    11998.057 
   31400    290.79198    205.49759   -3183.2529   -2750.7219    21.136943    11996.382 
   31450    301.67213    205.87505    -3195.835   -2747.1206   -256.95131    11994.422 
   31500    295.73696    205.65114   -3188.3715   -2748.4852   -135.73233    11992.068 
   31550    301.64997    205.84514    -3194.838   -2746.1565   -383.46963    11989.321 
   31600    304.48503    206.01234   -3200.4113   -2747.5129   -478.53162    11986.103 
   31650    282.75482    205.34865   -3178.2882   -2757.7118    242.46898    11982.398 
   31700    293.29673    205.59435   -3186.4784   -2750.2217    71.329204     11978.47 
   31750    302.08386    205.94041   -3198.0138    -2748.687   -192.36833    11974.295 
   31800    300.58442    205.92075   -3197.3582   -2750.2617   -116.98827    11969.737 
   31850    297.76225    205.87623   -3195.8743   -2752.9756   -20.092687    11964.829 
   31900    303.85723    205.95895   -3198.6317    -2746.667   -135.29228    11959.608 
   31950    301.97438    205.95553   -3198.5176   -2749.3536   -48.992685    11954.029 
   32000    284.76998      205.554   -3185.1333   -2761.5596    534.96147    11948.146 
   32050    297.80663    210.93882   -3197.9608    -2754.996    296.15793    11942.224 
   32100    297.07764    210.90048   -3196.6826   -2754.8021    273.86771    11936.201 
   32150    288.64568    210.61175   -3187.0582   -2757.7196    652.96313    11930.037 
   32200    293.51983    210.73737   -3191.2457   -2754.6572    724.07573    11923.937 
   32250    298.61868    210.95274   -3198.4248   -2754.2522    670.47248    11917.929 
   32300    277.87693     210.3961   -3179.8699    -2766.549    1193.5841    11912.029 
   32350    300.34218     211.1123   -3203.7434   -2757.0072    606.85711    11906.415 
   32400    296.21234    210.97887   -3199.2958   -2758.7024    741.16025    11900.878 
   32450    300.27573    211.01501   -3200.5002   -2753.8628    676.66702    11895.425 
   32500     294.9295    210.88162    -3196.054   -2757.3687     887.0808    11890.066 
   32550    291.45532    210.82887   -3194.2955   -2760.7778    969.28409     11884.89 
   32600    296.49757    210.94319   -3198.1064   -2757.0887    904.61408    11879.933 
   32650     294.1009     210.8932     -3196.44   -2758.9872    1110.7467     11875.19 
   32700    317.34249    211.60377   -3220.1258   -2748.1029    574.49094    11870.692 
   32750    290.11536    210.72917   -3190.9722   -2759.4476     1426.805    11866.299 
   32800    288.05343    210.64242   -3188.0806    -2759.623    1571.0998    11862.333 
   32850    307.84527    211.26543   -3208.8477   -2750.9512    1017.0492    11858.884 
   32900    312.65763    211.38953   -3212.9842   -2747.9297    914.87151    11855.706 
   32950    299.14025    210.97645    -3199.215   -2754.2665    1429.3094    11852.751 
   33000    308.88326    211.17704   -3205.9013   -2746.4609    1223.8276    11850.228 
   33050    308.60155    211.17944   -3205.9813   -2746.9599    1175.5274    11848.067 
   33100    296.50895    210.83774   -3194.5912   -2753.5566     1481.516     11846.25 
   33150    307.33507    211.10968   -3203.6559   -2746.5183    1255.0387    11844.889 
   33200    304.41247    210.91238   -3197.0794   -2744.2889    1520.5653    11843.937 
   33250    286.34032    210.34945   -3178.3151   -2752.4056    2130.1206    11843.526 
   33300    301.47561    210.77648   -3192.5494   -2744.1273    1725.3106    11843.899 
   33350     319.9173    211.31069   -3210.3564   -2734.5037    1219.7123    11844.891 
   33400     308.1433     210.9246   -3197.4865   -2739.1467    1543.5056    11846.283 
   33450     309.6188    210.89957   -3196.6524   -2736.1179    1581.3951    11848.193 
   33500    303.09962    210.66738   -3188.9127    -2738.075     1735.528    11850.666 
   33550    313.07238    210.98741   -3199.5802   -2733.9087     1404.057    11853.748 
   33600    332.62567    211.54832   -3218.2774   -2723.5219    882.29496    11857.288 
   33650    303.51207    210.56833   -3185.6111   -2734.1599    1666.1858    11861.091 
   33700     304.6082    210.51834   -3183.9446    -2730.863    1591.7928    11865.436 
   33750    297.96456    210.35937   -3178.6456   -2735.4459    1743.5181    11870.385 
   33800    309.77286    210.71968    -3190.656   -2729.8924    1403.0451    11875.963 
   33850    309.03872    210.57578   -3185.8593   -2726.1876    1391.8898    11882.062 
   33900    320.10245    210.93699   -3197.8996   -2721.7715    1071.2915    11888.602 
   33950     318.4099    210.79758   -3193.2526    -2719.642    1078.8899    11895.462 
   34000    296.19576    210.04111   -3168.0371   -2727.4683    1583.7056    11902.667 
   34050     308.1559    215.43802   -3181.2674   -2722.9089     1147.021    11910.397 
   34100    302.89771    215.28372   -3176.1239   -2725.5865    1219.8788    11918.532 
   34150    303.20272    215.17883   -3172.6275   -2721.6364    1302.4574    11927.089 
   34200    317.13148    215.52169   -3184.0562   -2712.3472    923.43489    11936.072 
   34250    311.55689    215.41474   -3180.4913    -2717.074    874.06153     11945.33 
   34300    309.56086    215.31041   -3177.0137   -2716.5653    776.77462    11954.822 
   34350    299.82666    215.01543   -3167.1808   -2721.2114    975.24862    11964.524 
   34400    295.67931     214.8695   -3162.3165   -2722.5159    1047.7013    11974.513 
   34450    299.68257    214.95558   -3165.1862    -2719.431    817.18163    11984.821 
   34500     303.9498    214.99735   -3166.5782   -2714.4759    557.72967    11995.337 
   34550    294.65473    214.76758   -3158.9193   -2720.6427    639.31077    12005.955 
   34600    306.31954    215.08027   -3169.3422   -2713.7151    250.91416     12016.66 
   34650    313.94902    215.33773   -3177.9243    -2710.949   -48.940777     12027.28 
   34700    309.93194    215.10895   -3170.2982   -2709.2979   -28.631471    12037.669 
   34750    310.50762    215.07275   -3169.0918   -2707.2353   -131.47773    12047.799 
   34800    303.55208    214.82482   -3160.8272   -2709.3165   -2.0455634    12057.646 
   34850    301.27193    214.76713   -3158.9042   -2710.7851   -23.865351    12067.255 
   34900    292.42053    214.35803   -3145.2677   -2710.3143    229.08211    12076.637 
   34950    309.61016    214.94932   -3164.9775   -2704.4558   -398.93751    12085.851 
   35000     303.5541    214.74076   -3158.0253   -2706.5116   -413.56418    12094.657 
   35050    290.66952    219.29542   -3143.1806   -2710.8317   -90.767969    12103.013 
   35100    287.31884    219.16116   -3138.7053   -2711.3403   -29.620449    12111.081 
   35150    289.51625    219.25699   -3141.8996   -2711.2661   -193.62448    12118.901 
   35200    301.77749    219.55967   -3151.9889   -2703.1178   -649.00202    12126.379 
   35250    296.45355    219.29885   -3143.2949   -2702.3427   -561.57435    12133.304 
   35300     287.9015    219.02905   -3134.3018   -2706.0701    -305.5101    12139.692 
   35350    282.69148    218.91041    -3130.347   -2709.8648   -214.60175    12145.688 
   35400     289.0466    219.07068   -3135.6893   -2705.7543   -442.97941    12151.329 
   35450    299.45587    219.28894   -3142.9647   -2697.5468   -708.17433    12156.497 
   35500    295.14004    219.16396   -3138.7985   -2699.8001   -616.80048    12161.053 
   35550    303.29446    219.38228   -3146.0761   -2694.9486   -918.57078    12165.009 
   35600    310.65997    219.53843   -3151.2809   -2689.1978   -1121.0383    12168.228 
   35650    296.09463    219.04061    -3134.687   -2694.2686   -626.57175    12170.638 
   35700    302.20472    219.12649   -3137.5498   -2688.0432   -725.92788     12172.42 
   35750    290.89393     218.7713   -3125.7098   -2693.0272   -464.95213    12173.583 
   35800    293.92221    218.83936   -3127.9786   -2690.7916    -521.6753    12174.234 
   35850    298.67825    218.99336   -3133.1119   -2688.8506   -528.28254    12174.371 
   35900    298.06544    218.98005   -3132.6683   -2689.3185   -431.68755    12173.987 
   35950    303.92808    219.09828   -3136.6094   -2684.5394   -563.12923    12173.116 
   36000    304.69874    219.14955   -3138.3184   -2685.1021   -496.04228    12171.689 
   36050    293.95349     223.7714   -3125.7133   -2688.4798    -137.2335    12169.791 
   36100    306.43861    224.12227   -3137.4091   -2681.6049   -451.48897    12167.546 
   36150    287.73429     223.5066   -3116.8867   -2688.9038    108.04715    12164.873 
   36200    307.17544    224.10461   -3136.8202     -2679.92   -424.42946    12161.956 
   36250    313.68114    224.30391   -3143.4638   -2676.8869   -602.84393    12158.601 
   36300    293.27099    223.53004    -3117.668   -2681.4496    97.298646    12154.743 
   36350    311.47056    224.17262   -3139.0873   -2675.7985   -344.80593    12150.616 
   36400    305.50969    223.94051   -3131.3503   -2676.9278   -124.55927    12146.131 
   36450    303.52659    223.91749   -3130.5831   -2679.1103   -7.3461408    12141.325 
   36500    295.20481    223.70033   -3123.3445   -2684.2497    299.42725    12136.286 
   36550    292.42554    223.51329   -3117.1095   -2682.1487    433.90653    12131.187 
   36600     319.0804    224.35345   -3145.1149    -2670.507   -226.91469    12126.034 
   36650     320.1347    224.32378   -3144.1259   -2667.9498   -98.769573    12120.558 
   36700    305.08891    223.76492   -3125.4974   -2671.7008    442.32982    12114.807 
   36750    307.45438    223.80334   -3126.7779   -2669.4628    444.44071    12109.013 
   36800    310.49713     223.8222   -3127.4067   -2665.5658    458.63022    12103.228 
   36850    312.67563    223.91289   -3130.4297   -2665.3484    510.16405    12097.447 
   36900    309.72754    223.83097   -3127.6989   -2667.0027    678.54242    12091.706 
   36950    305.85447    223.80292   -3126.7639   -2671.8286    772.39813    12086.091 
   37000    318.60865    224.16858   -3138.9528   -2665.0465    419.14094    12080.631 
   37050    334.32049     224.6731   -3155.7698   -2658.4934   -3.2567985    12075.156 
   37100    325.61688    224.50244   -3150.0814    -2665.751    316.88724    12069.465 
   37150    309.71886    223.96133   -3132.0443    -2671.361     974.7778     12063.71 
   37200     323.7767    224.35438   -3145.1461   -2663.5528    716.01514    12058.169 
   37250     303.4104    223.62642   -3120.8806   -2669.5807    1359.8031    12052.847 
   37300    301.23484    223.63908   -3121.3027   -2673.2387    1572.4918    12047.975 
   37350     303.6459     223.6619   -3122.0634   -2670.4132    1545.8456    12043.705 
   37400     320.4192    224.21714   -3140.5713   -2663.9721    983.00737    12039.991 
   37450    321.21277     224.3073   -3143.5765   -2665.7969     952.4682    12036.583 
   37500    307.96279    223.92419   -3130.8062   -2672.7349    1336.8382    12033.476 
   37550    306.90833    223.92525   -3130.8416   -2674.3387    1372.9582    12030.829 
   37600    319.33728    224.31538   -3143.8459   -2668.8559    1098.6075    12028.651 
   37650    313.11447    224.24889   -3141.6296   -2675.8956    1178.4924    12026.838 
   37700    311.60011    224.24732   -3141.5775   -2678.0959    1145.3748    12025.396 
   37750     311.1819    224.20178   -3140.0592   -2677.1997    1161.5906     12024.33 
   37800    325.14195    224.60087   -3153.3624   -2669.7384    758.52866    12023.611 
   37850    311.25169    224.20882   -3140.2939   -2677.3306    1041.3659      12023.1 
   37900    310.84712    224.22137   -3140.7122   -2678.3507    1009.3666    12022.891 
   37950    321.37744    224.65862   -3155.2875   -2677.2629    695.93635    12022.952 
   38000    305.65918    224.19455   -3139.8182   -2685.1733    1065.7575    12023.192 
   38050    310.11776    224.38969   -3146.3231   -2685.0465    835.94392    12023.739 
   38100     314.7006    224.52916   -3150.9719   -2682.8786     655.0465    12024.501 
   38150    299.36333    224.04836   -3134.9454   -2689.6652    1067.3856    12025.424 
   38200    303.10562    224.19617   -3139.8724   -2689.0258    968.09092    12026.645 
   38250     297.1218    223.99956   -3133.3185   -2691.3724    1184.7433    12028.172 
   38300    302.81795    224.28222   -3142.7405   -2692.3218    939.06916     12030.08 
   38350    312.90369    224.75924   -3158.6412   -2693.2207    459.14916    12032.258 
   38400    298.40476    224.29309    -3143.103   -2699.2486    770.12122    12034.502 
   38450    298.08046    224.33589   -3144.5297   -2701.1576    709.87834    12036.907 
   38500    312.54975    224.89115   -3163.0385   -2698.1444    246.95081    12039.452 
   38550     303.3848    224.57306   -3152.4355   -2701.1736    463.67662    12041.943 
   38600    284.12988      224.032   -3134.4001   -2711.7784    925.37831    12044.481 
   38650    281.74588    223.93719   -3131.2396    -2712.164    999.63803    12047.277 
   38700      298.921    224.52863   -3150.9542   -2706.3318    359.76832    12050.355 
   38750    298.49572    224.55767   -3151.9224   -2707.9326     289.8774    12053.436 
   38800    306.52297    224.78312   -3159.4374   -2703.5077    83.990266    12056.438 
   38850    298.92619      224.587   -3152.9001     -2708.27    218.90822    12059.289 
   38900    294.40046    224.43156   -3147.7188   -2709.8205    351.07373    12062.025 
   38950    293.76778    224.41897   -3147.2991   -2710.3418    451.23998     12064.73 
   39000     290.3151    224.25817    -3141.939   -2710.1173    535.19536    12067.459 
   39050    309.73538    224.87063   -3162.3543   -2701.6464    -176.8204    12070.213 
   39100    303.72767    224.75184   -3158.3946   -2706.6227   -71.950294    12072.689 
   39150    280.64791    223.94474   -3131.4912   -2714.0487    655.28586     12074.94 
   39200    295.53629    224.48836   -3149.6121   -2710.0243    205.17847    12077.254 
   39250    283.21821    224.09492   -3136.4974   -2715.2317     466.1872    12079.525 
   39300    293.32228     224.5222   -3150.7399   -2714.4453    71.065123     12081.79 
   39350    288.34013    224.26327    -3142.109   -2713.2249    261.08243    12083.911 
   39400    281.16206    223.91804   -3130.6013    -2712.394    443.75059    12085.963 
   39450    303.25527    224.72028   -3157.3428   -2706.2736   -311.55589     12087.99 
   39500     297.6721    224.59475   -3153.1582   -2710.3935   -197.81972    12089.671 
   39550     299.5919    224.59412   -3153.1373   -2707.5171   -248.94102    12091.006 
   39600    301.39187    224.62113   -3154.0376     -2705.74   -276.67895    12091.976 
   39650    278.19009    223.91295   -3130.4316    -2716.645    356.82214    12092.624 
   39700    295.16509    224.43977   -3147.9924   -2708.9567    -175.4044    12093.181 
   39750     289.6085     224.2217   -3140.7234   -2709.9527   -24.048781    12093.457 
   39800    300.70576    224.67714   -3155.9047   -2708.6277    -375.5781    12093.459 
   39850      303.443    224.75071   -3158.3569   -2707.0084   -406.66852    12093.063 
   39900    294.90701    224.39722   -3146.5742   -2707.9223   -26.896454    12092.239 
   39950    295.92465    224.48462   -3149.4872   -2709.3217   -91.246458    12091.159 
   40000    285.06478     224.0724   -3135.7467   -2711.7344    203.18632    12089.827 
   40050    295.32773    224.32376   -3144.1254   -2704.8478     22.59686    12088.337 
   40100    300.56241    224.44574   -3148.1913   -2701.1275    23.027295    12086.651 
   40150    291.96132     224.2085   -3140.2833    -2706.013    378.40104    12084.762 
   40200    290.63657    224.15775   -3138.5917   -2706.2919     409.7096     12082.83 
   40250    297.28469    224.30438   -3143.4793   -2701.2909    236.84473    12080.878 
   40300     290.6713    224.15774   -3138.5914   -2706.2399    527.40178    12078.846 
   40350    292.34412    224.14792   -3138.2641   -2703.4243    499.24087     12076.86 
   40400    304.30772    224.60638    -3153.546   -2700.9113    36.840622    12074.877 
   40450    299.54155    224.40019   -3146.6729   -2701.1275     192.5093    12072.731 
   40500    307.86606    224.61123   -3153.7078   -2695.7804    69.549276    12070.448 
   40550    304.39668    224.60277   -3153.4256   -2700.6586    187.67514    12067.971 
   40600    292.41814     224.1693   -3138.9768   -2704.0269    552.34158    12065.368 
   40650     297.8677    224.28874   -3142.9581   -2699.9025    490.91379    12062.811 
   40700    302.17242    224.43214    -3147.738   -2698.2794    432.71582    12060.286 
   40750    308.81823    224.55131   -3151.7105   -2692.3668    247.38722    12057.759 
   40800    306.77385    224.55089   -3151.6965   -2695.3936    328.37935    12055.138 
   40850    294.96129    224.15055   -3138.3517   -2699.6191    743.18063    12052.493 
   40900    304.79591    224.36098   -3145.3658    -2692.005    627.32818    12049.988 
   40950    308.93593    224.49608   -3149.8693   -2690.3505    637.15482    12047.594 
   41000    307.58892    224.46101   -3148.7004   -2691.1852    714.63741     12045.31 
   41050    298.29051    224.09063   -3136.3545     -2692.67    1032.6734    12043.184 
   41100    299.75916     224.1739   -3139.1301   -2693.2611    1046.8382    12041.367 
   41150    316.25377    224.74277   -3158.0924   -2687.6889    646.76983    12039.851 
   41200    310.61834    224.63351   -3154.4503    -2692.429    761.00562    12038.477 
   41250    301.39158    224.24094   -3141.3646   -2693.0675    980.98655    12037.278 
   41300    311.55295    224.50391   -3150.1303   -2686.7189    663.93806    12036.336 
   41350    316.22713    224.68789    -3156.263   -2685.8991    478.88845    12035.515 
   41400    305.66113    224.34159   -3144.7196   -2690.0718    835.98152    12034.733 
   41450    300.91101    224.12371   -3137.4568   -2689.8745    1031.2257    12034.157 
   41500    308.91639     224.4855   -3149.5167    -2690.027    776.20165    12033.863 
   41550    307.01778    224.41531   -3147.1769   -2690.5112      802.682    12033.764 
   41600    292.31049    223.93083   -3131.0275   -2696.2378     1141.121    12033.885 
   41650    309.33123    224.43249   -3147.7498    -2687.643     584.6824    12034.332 
   41700    323.70214    224.86752   -3162.2507   -2680.7683    161.31977    12034.862 
   41750    319.12949    224.75205   -3158.4017   -2683.7208     398.9984    12035.271 
   41800      306.633    224.34394   -3144.7982   -2688.7048    868.51062    12035.685 
   41850    311.99668    224.63255   -3154.4182   -2690.3468    650.71659    12036.286 
   41900    305.31783    224.46549   -3148.8495   -2694.7124    756.70168    12037.037 
   41950    305.29767    224.38024   -3146.0079   -2691.9008    816.16451    12037.957 
   42000    293.49943    223.99383   -3133.1278   -2696.5696    1225.2137    12039.108 
   42050    303.43344    224.28833   -3142.9442     -2691.61    883.79155    12040.653 
   42100    315.25337    224.55278   -3151.7594   -2682.8439    540.69346    12042.432 
   42150    313.75259    224.51734    -3150.578   -2683.8948    652.64812     12044.28 
   42200    308.28251    224.40345   -3146.7816   -2688.2347    753.50073    12046.262 
   42250    313.93636    224.57677   -3152.5589   -2685.6023    517.16403    12048.376 
   42300     298.2901    224.09681   -3136.5602   -2692.8763     776.4271    12050.576 
   42350    314.92881    224.75503   -3158.5009   -2690.0682    178.62469    12052.914 
   42400    301.83867    224.25081   -3141.6937   -2692.7316    624.42491    12055.163 
   42450    289.09747    223.77543   -3125.8476   -2695.8371    1003.9246    12057.509 
   42500     301.4184    224.23793   -3141.2644   -2692.9274    573.25179    12060.126 
   42550    302.75124    224.35549   -3145.1831   -2694.8635    462.36605    12062.854 
   42600    307.95924    224.60471   -3153.4904   -2695.4244    245.27106      12065.6 
   42650    288.90398    223.97155   -3132.3851   -2702.6623    777.30819    12068.295 
   42700     290.8556    224.03823   -3134.6076    -2701.982    683.35731    12071.152 
   42750    292.71929    224.16146   -3138.7152   -2703.3174     515.7614    12074.162 
   42800    295.08197    224.26168   -3142.0561    -2703.144    292.57618    12077.231 
   42850    310.20774     224.7506   -3158.3532   -2696.9427   -255.39518    12080.217 
   42900    308.54851    224.72537   -3157.5124   -2698.5698   -254.71264    12082.864 
   42950    288.93654    224.11831   -3137.2771   -2707.5059    220.76062    12085.182 
   43000    293.18192     224.2675   -3142.2498    -2706.164    102.92575    12087.357 
   43050      277.167     228.7807   -3126.0234   -2713.7585    579.74195    12089.428 
   43100    292.52384    229.36485    -3145.495   -2710.3879    22.242803    12091.541 
   43150    304.48671    229.82348   -3160.7826   -2707.8817   -554.10058    12093.465 
   43200    295.81197    229.61843   -3153.9477   -2713.9498    -276.0173    12094.915 
   43250    275.60198     228.8966   -3129.8865   -2719.9495    436.43827    12096.033 
   43300    285.25718    229.25278   -3141.7594    -2717.461    91.752078    12097.127 
   43350    292.69856    229.53356   -3151.1185   -2715.7516   -189.97154     12098.08 
   43400    285.19333    229.26788   -3142.2628   -2718.0594    87.959098    12098.755 
   43450    290.17821    229.48198   -3149.3994   -2717.7813   -76.945354    12099.241 
   43500    283.93314    229.31945   -3143.9816   -2721.6526   -31.786589    12099.511 
   43550    298.01963    229.87801   -3162.6004   -2719.3187   -506.08196    12099.511 
   43600    283.88139    229.47545   -3149.1816   -2726.9296   -139.06738    12099.105 
   43650    299.12586    229.95382   -3165.1273   -2720.2002   -545.64095    12098.363 
   43700    275.20923    229.08215   -3136.0715   -2726.7187      203.475     12097.19 
   43750    274.76624    229.08612   -3136.2041   -2727.5102    182.24371    12095.884 
   43800     293.3504    229.76874   -3158.9581   -2722.6216    -429.8784    12094.449 
   43850    287.16527    229.50291    -3150.097   -2722.9604   -213.65354    12092.626 
   43900    284.84899     229.4777   -3149.2567   -2725.5654    -111.4275    12090.472 
   43950    292.11941    229.71904   -3157.3012   -2722.7957   -271.59306    12088.039 
   44000    286.06564    229.44521   -3148.1736   -2722.6726   -72.457397    12085.276 
[...]
   89400    298.76713    247.23142   -3074.3806   -2629.9872    472.37106    12269.796 
   89450    307.84373    247.53813   -3084.6043   -2626.7101     239.8161    12268.615 
   89500    290.24402    246.94793   -3064.9309   -2633.2149    786.08698    12267.451 
   89550    293.78514    247.09501   -3069.8335   -2632.8504    657.31551    12266.516 
   89600    287.45318    246.85109    -3061.703   -2634.1382    830.76998    12265.808 
   89650     297.5542    247.22562   -3074.1874   -2631.5981    474.86843    12265.383 
   89700     312.2385    247.70357    -3090.119   -2625.6879   -78.525083    12265.057 
   89750    292.73397     247.1621   -3072.0701   -2636.6505    449.30205    12264.584 
   89800     287.8321    247.02359   -3067.4529   -2639.3245     684.2801    12264.174 
   89850    286.38233      246.963   -3065.4333   -2639.4613     727.4568    12263.986 
   89900    306.51264    247.72756   -3090.9187   -2635.0044    1.0942832    12263.986 
   89950    295.93804    247.26885   -3075.6284    -2635.443    247.64582    12263.903 
   90000     306.1742    247.68757   -3089.5858   -2634.1749   -114.57592    12263.744 
   90050    303.26904    247.56155   -3085.3849   -2634.2951    30.702375    12263.382 
   90100    287.53995     246.9527   -3065.0902   -2637.3963    597.88419    12262.904 
   90150    298.87993    247.39407   -3079.8024   -2635.2411    248.77062    12262.538 
   90200     293.3966    247.26053   -3075.3509   -2638.9457    364.67021    12262.182 
   90250    294.61883    247.22345   -3074.1151   -2635.8919    315.41348    12261.857 
   90300    297.68147    247.43603    -3081.201   -2638.4223     128.8099    12261.543 
   90350    305.58011    247.69716   -3089.9055   -2635.3782   -186.99099    12261.135 
   90400    295.77897    247.39142   -3079.7139   -2639.7651    216.06003    12260.507 
   90450    283.77173    247.01996   -3067.3321   -2645.2432    662.96669    12259.843 
   90500    297.39509    247.62578   -3087.5261   -2645.1735    173.60364    12259.328 
   90550    286.28145    247.20655   -3073.5515   -2647.7296    503.30252    12258.819 
   90600     299.6436    247.67143   -3089.0477   -2643.3505    18.753585    12258.379 
   90650    303.69017    247.92536    -3097.512   -2645.7959    -237.4344    12257.797 
   90700    290.59475    247.46147   -3082.0491   -2649.8115    139.49741    12256.961 
   90750    286.33172    247.23506    -3074.502   -2648.6053    294.13757    12256.043 
   90800    296.83566    247.58287   -3086.0958   -2644.5753    62.745799    12255.098 
   90850    282.09618    247.08377   -3069.4589   -2649.8622    582.37535    12254.074 
   90900    279.15744     246.9885   -3066.2834   -2651.0578    652.49261    12253.188 
   90950    287.55427    247.30732   -3076.9106   -2649.1954    335.17957    12252.496 
   91000    299.10782    247.70592   -3090.1972    -2645.297    1.4658048    12251.842 
   91050    298.37093     247.7511   -3091.7033   -2647.8991    21.377936    12251.047 
   91100    293.01805    247.55901   -3085.3004   -2649.4582    159.04443    12250.111 
   91150    296.21421     247.7047   -3090.1568   -2649.5606   -11.203651    12249.091 
   91200    289.09378    247.41056   -3080.3522   -2650.3471     255.0956    12247.949 
   91250    295.27578     247.5813   -3086.0432   -2646.8429    204.37601    12246.766 
   91300    280.45617     247.0647   -3068.8232    -2651.666    662.37656     12245.58 
   91350    300.88398    247.85471   -3095.1569   -2647.6148   -47.533656    12244.525 
   91400    294.30703    247.58721   -3086.2402   -2648.4808    278.57149     12243.35 
   91450     283.1924    247.24647   -3074.8825   -2653.6552    728.45436    12242.172 
   91500    292.28674     247.5049   -3083.4965   -2648.7422    422.69215    12241.204 
   91550    290.83841    247.47211   -3082.4037   -2649.8036    428.36667    12240.334 
   91600     301.8608    247.96069   -3098.6898   -2649.6948    56.625007    12239.503 
   91650     297.0752    247.82689   -3094.2296   -2652.3528    189.26853     12238.57 
   91700    300.96988     247.9179   -3097.2632   -2649.5933    138.99559    12237.578 
   91750    293.24091    247.63535    -3087.845   -2651.6714    429.87821    12236.527 
   91800    288.21254    247.41159   -3080.3865   -2651.6922    539.83114     12235.55 
   91850    285.90572      247.325   -3077.4999   -2652.2368    574.86125    12234.727 
   91900    292.53018    247.41062   -3080.3541   -2645.2377    454.75244    12234.047 
   91950    298.53482    247.67225    -3089.075   -2645.0271     254.6116    12233.465 
   92000    298.26044    247.70924   -3090.3079   -2646.6681    248.76836    12232.879 
   92050     299.9666    242.72254   -3090.7512   -2644.5736    278.12486    12232.266 
   92100    303.55736    242.80682   -3093.5608   -2642.0422    207.74766    12231.637 
   92150    307.94482    243.02191   -3100.7304   -2642.6858    84.617026    12230.919 
   92200    294.14717    242.49866   -3083.2887   -2645.7671       511.51    12230.116 
   92250    291.26833     242.3405   -3078.0166    -2644.777    627.92733    12229.401 
   92300    287.95879    242.24411   -3074.8037   -2646.4868     756.2092    12228.857 
   92350    298.46571    242.68556   -3089.5188   -2645.5737    398.65604    12228.533 
   92400    301.75346    242.69954   -3089.9847   -2641.1493    319.17636    12228.266 
   92450    302.15425    242.67136   -3089.0454   -2639.6138    373.72283    12228.007 
   92500    304.04348    242.62101   -3087.3668   -2635.1252    440.19802    12227.789 
   92550     302.9691    242.53418   -3084.4727   -2633.8292    516.31531    12227.639 
   92600    303.77176    242.55446   -3085.1487   -2633.3112    476.23489    12227.579 
   92650    295.61744     242.4091   -3080.3032   -2640.5947    699.13804    12227.621 
   92700    294.43482    242.33282   -3077.7607   -2639.8112    782.24112    12227.869 
   92750    311.56828    242.89505   -3096.5018   -2633.0676    245.56958    12228.335 
   92800    312.71706    242.86769   -3095.5897   -2630.4468    271.76913    12228.782 
   92850    298.53579    242.36075   -3078.6916   -2634.6422    897.48469    12229.214 
   92900    290.81269    241.99731   -3066.5771   -2634.0152    1253.5588    12229.965 
   92950    302.99429    242.43491   -3081.1635   -2630.4825    781.88758     12231.19 
   93000    310.36102     242.7451   -3091.5034   -2629.8649    382.19627    12232.661 
   93050    301.30298    247.21194   -3073.7312   -2625.5659     664.0477    12234.218 
   93100    302.87305    247.37395   -3079.1316   -2628.6309    529.51465    12235.939 
   93150    289.98614    246.80377   -3060.1257   -2628.7933    937.52822     12237.83 
   93200    297.92603    247.03308   -3067.7694    -2624.627     678.6034    12240.045 
   93250    321.26752    247.90119   -3096.7064   -2618.8453   -65.617025    12242.444 
   93300    307.51861    247.35023   -3078.3411   -2620.9305    472.09411    12244.721 
   93350    294.68293    246.95195   -3065.0651   -2626.7466    963.98429    12247.078 
   93400    288.61468    246.68495    -3056.165   -2626.8726    1257.3319    12249.815 
   93450    305.81034    247.25777    -3075.259   -2620.3893    715.88388    12253.062 
   93500    315.04635    247.57541   -3085.8469   -2617.2394    373.92963    12256.561 
   93550    302.77367    247.04524   -3068.1746   -2617.8217    789.91789     12260.14 
   93600    309.03294    247.14329    -3071.443     -2611.78    545.03688    12263.971 
   93650    313.59217    247.27254   -3075.7515   -2609.3069    261.51593    12267.935 
   93700    309.66397    247.04209   -3068.0695   -2607.4678    366.71616    12271.902 
   93750     317.5821    247.33474   -3077.8246   -2605.4453    187.35415    12275.905 
   93800    306.39879     246.9163   -3063.8767   -2608.1317    622.64916    12279.886 
   93850    299.78129    246.68478   -3056.1595   -2610.2575    940.45394    12284.041 
   93900    308.53947    247.00233   -3066.7444   -2607.8153    653.18603    12288.526 
   93950    301.96961    246.57188   -3052.3961   -2603.2392    856.20219    12293.253 
   94000    298.62642    246.46707   -3048.9023   -2604.7181    897.46985    12298.293 
   94050     300.0369    251.48445   -3049.4817   -2603.1996    780.37346    12303.672 
   94100    293.95724    251.34486   -3044.8287   -2607.5896    864.58224    12309.349 
   94150    297.48236    251.38176   -3046.0585   -2603.5761    730.21053     12315.38 
   94200    314.63316     251.9377   -3064.5901   -2596.5971    129.22936    12321.657 
   94250    313.01032    251.80282    -3060.094   -2594.5149    86.286551    12327.894 
   94300    309.19093    251.66751   -3055.5836   -2595.6855    157.98342    12334.014 
   94350    298.52104    251.30253   -3043.4177   -2599.3902    540.90593    12340.096 
   94400    295.10834    251.24932   -3041.6439   -2602.6926    692.37532    12346.329 
   94450    287.99906    250.93164   -3031.0546   -2602.6779    895.95518    12352.826 
   94500     300.4269    251.30924   -3043.6413   -2596.7791    447.59064    12359.646 
   94550    303.23905    251.42372   -3047.4572   -2596.4121    251.47299      12366.6 
   94600    306.56823    251.35571   -3045.1904   -2589.1933    175.72469    12373.563 
   94650      302.908    251.19646    -3039.882   -2589.3293    303.79127    12380.494 
   94700    297.38377    251.01574   -3033.8581   -2591.5223    407.90901    12387.453 
   94750    306.13847    251.31996   -3043.9986   -2588.6408    16.768724     12394.47 
   94800     291.0087    250.75093    -3025.031   -2592.1776    398.54764    12401.416 
   94850    304.74952     251.2078   -3040.2601   -2586.9683   -14.105298    12408.387 
   94900    303.50275    251.08644   -3036.2146   -2584.7773   -2.2918185     12415.24 
   94950    301.24379    250.97534   -3032.5112   -2584.4339    40.061073    12421.948 
   95000    299.59454    250.83028   -3027.6761   -2582.0519     140.0758    12428.545 
   95050    304.33661    250.94721   -3031.5738   -2578.8962   -111.19433    12435.058 
   95100    312.56111    251.32515   -3044.1718   -2579.2609   -580.92658    12441.361 
   95150     308.3808    251.05021    -3035.007    -2576.314   -468.42833    12447.226 
   95200    307.01237    250.89312   -3029.7705   -2573.1129   -347.59807    12452.659 
   95250    291.36807    250.30025   -3010.0083   -2576.6204    315.00546    12457.781 
   95300    283.97296    250.01067   -3000.3558   -2577.9675    645.27592    12462.926 
   95350    299.25602    250.61938   -3020.6461   -2575.5254    22.670458    12468.232 
   95400    303.79289    250.67246   -3022.4154   -2570.5465   -176.29188    12473.429 
   95450    302.93437    250.63309   -3021.1031   -2570.5112   -196.24797    12478.371 
   95500    306.88633    250.79049   -3026.3495   -2569.8794   -414.55869    12483.044 
   95550       305.89    250.66633   -3022.2109   -2567.2228   -342.55217     12487.34 
   95600    303.17372    250.48217   -3016.0725   -2565.1246   -121.63183    12491.301 
   95650    304.56547    250.52336   -3017.4455   -2564.4274   -197.06993    12495.022 
   95700    309.35994     250.6149   -3020.4967   -2560.3472   -396.23249    12498.472 
   95750    317.25254     250.7835   -3026.1168   -2554.2277   -684.38141     12501.54 
   95800    318.80815    250.76731   -3025.5771   -2551.3742    -763.3053    12504.043 
   95850    310.76436    250.48327   -3016.1091   -2553.8706    -459.8176    12505.967 
   95900    298.75459    249.87267   -2995.7557   -2551.3808    50.037385    12507.509 
   95950    305.98259    250.20149   -3006.7164   -2551.5905   -196.29831    12508.865 
   96000     297.4105    249.91095   -2997.0317   -2554.6561    26.070278    12509.987 
   96050    302.19384    249.98605   -2999.5349   -2550.0444   -42.457342     12510.95 
   96100    306.27313     250.0019   -3000.0633   -2544.5053   -126.26887    12511.743 
   96150    323.86628    250.55525   -3018.5084   -2536.7819   -580.39131    12512.277 
   96200    323.17222    250.46148   -3015.3827   -2534.6886   -466.15065     12512.35 
   96250    329.68934    250.70487   -3023.4956   -2533.1077   -510.04525    12511.952 
   96300    299.82152    249.51016   -2983.6719   -2537.7101     683.2709    12511.182 
   96350    306.70351    249.81205    -2993.735   -2537.5368    443.35662    12510.557 
   96400    327.06746    250.52851    -3017.617   -2531.1289   -366.68194    12509.997 
   96450     312.4196    249.88426   -2996.1421   -2531.4417    187.30574    12509.154 
   96500    307.01597    249.74622   -2991.5408   -2534.8778    536.47711    12508.232 
   96550    309.52719      249.826   -2994.2001   -2533.8019    534.90659    12507.419 
   96600    312.83222    249.92584    -2997.528   -2532.2138    339.03251    12506.746 
   96650    324.49127     250.3115   -3010.3834   -2527.7272   -26.511542    12506.096 
   96700     323.7751    250.19053   -3006.3511   -2524.7602    192.42901    12505.297 
   96750    319.88383    250.02777   -3000.9257   -2525.1227    345.23581    12504.426 
   96800    317.52847    249.93044   -2997.6814   -2525.3818    244.60742    12503.573 
   96850    313.30171    249.78711   -2992.9037   -2526.8911    276.15209    12502.703 
   96900    313.46487    249.77026   -2992.3421   -2526.0869    361.18128    12501.827 
   96950    311.51922    249.69354   -2989.7847   -2526.4235    572.62052    12500.991 
   97000    304.23538    249.45615   -2981.8717   -2529.3446    817.03547    12500.326 
   97050    332.01347    250.54367   -3018.1225   -2524.2776   -183.27846    12499.897 
   97100    340.93548    250.81917   -3027.3058   -2520.1901    -479.9776    12499.235 
   97150    321.48517    250.11153   -3003.7178    -2525.533    310.28142    12498.184 
   97200     309.2544    249.71907   -2990.6356   -2530.6432    661.19859    12497.135 
   97250    326.02189    250.44342   -3014.7808    -2529.848    3.9176988    12496.229 
   97300    304.02802    249.61045   -2987.0149   -2534.7963    669.29546    12495.257 
   97350    318.94081    250.14578   -3004.8594   -2530.4591    202.24279    12494.435 
   97400    316.86298    250.06395   -3002.1318   -2530.8221    194.02583     12493.62 
   97450    313.36877    249.90729   -2996.9096   -2530.7973    341.82164    12492.756 
   97500    319.05383    250.25042   -3008.3474    -2533.779    150.09522    12491.919 
   97550    327.35161    250.56439    -3018.813   -2531.9023   -155.00881    12490.993 
   97600    321.98676    250.34438   -3011.4793   -2532.5484    29.310096    12489.829 
   97650    313.79675     250.1021   -3003.4034   -2536.6545    155.56471    12488.538 
   97700     318.3353    250.40489   -3013.4963   -2539.9966   -50.368905    12487.147 
   97750    297.40782     249.7977   -2993.2567   -2550.8851    614.65508    12485.612 
   97800    313.63786    250.35915   -3011.9717   -2545.4592    142.17026    12484.212 
   97850    321.27988    250.68155   -3022.7182   -2544.8387     -217.051    12482.757 
   97900    325.34878    250.87202   -3029.0675   -2545.1358   -450.14511    12481.003 
   97950    314.16151    250.36361   -3012.1204    -2544.829   -76.084697    12478.868 
   98000    310.21347    250.25704   -3008.5681    -2547.149    133.91605     12476.51 
   98050    307.33101    250.26224   -3008.7413   -2551.6097    241.31205    12474.085 
   98100    309.24423    250.27823   -3009.2743   -2549.2969    228.79703    12471.642 
   98150    315.67771    250.49729   -3016.5762   -2547.0295    37.581562    12469.148 
   98200    313.40243    250.47135   -3015.7117   -2549.5493    74.911813    12466.523 
   98250    305.22649    250.17298   -3005.7661   -2551.7648    292.00915    12463.794 
   98300    319.51178    250.68726   -3022.9087   -2547.6591    -135.7159    12461.028 
   98350    299.74852    250.07584   -3002.5279   -2556.6747    418.60568    12458.101 
   98400    303.88416    250.35609   -3011.8697    -2559.865    256.23132    12455.189 
   98450    307.50268    250.50231   -3016.7435   -2559.3566    225.91367    12452.285 
   98500    299.13274    250.19339   -3006.4462    -2561.509    580.03895    12449.389 
   98550    314.98401    250.80619   -3026.8728    -2558.358    102.62621    12446.601 
   98600    298.27221    250.04848   -3001.6162   -2557.9589    667.76663    12443.792 
   98650    301.31143    250.26991    -3008.997   -2560.8191    569.27694    12441.135 
   98700    302.09414    250.36366   -3012.1222     -2562.78    463.58616    12438.643 
   98750    305.32635    250.50539   -3016.8462   -2562.6964     353.3363    12436.256 
   98800    312.11253    250.82781   -3027.5936   -2563.3499    120.94329    12433.904 
   98850    305.83507    250.51494   -3017.1647   -2562.2582    410.06804    12431.505 
   98900    299.33754    250.32412   -3010.8039   -2565.5619    670.29157    12429.174 
   98950    292.08349    250.06418   -3002.1392   -2567.6871    899.00327    12427.088 
   99000    301.97785    250.42989   -3014.3298   -2565.1606    552.89111    12425.313 
   99050    303.92846    255.51026   -3017.0087   -2564.9382    457.05353    12423.712 
   99100     309.2507    255.63262   -3021.0873   -2561.1004    263.12472    12422.234 
   99150    321.91811    256.14442   -3038.1472   -2559.3184   -240.73438    12420.737 
   99200    309.90662    255.82658   -3027.5528   -2566.5902    100.94677    12419.008 
   99250    293.37197    255.10099   -3003.3663   -2566.9977    740.49896    12417.217 
   99300     308.0488    255.69098   -3023.0325   -2564.8333    259.60195    12415.624 
   99350    319.46271    256.21593   -3040.5311   -2565.3545   -214.98238    12414.045 
   99400    308.88589    255.75773   -3025.2578   -2565.8134    131.44287    12412.244 
   99450    303.73905    255.57389   -3019.1296   -2567.3408    294.87731    12410.359 
   99500    305.23003    255.72918   -3024.3061   -2570.2995    120.87823    12408.507 
   99550    320.95609     256.2888     -3042.96   -2565.5621   -338.58387    12406.534 
   99600    292.39114    255.26587   -3008.8622   -2573.9525    644.10807    12404.323 
   99650    305.88591    255.85345   -3028.4482   -2573.4661    281.71557    12402.239 
   99700    299.91775    255.70172   -3023.3906   -2577.2857    514.69389    12400.227 
   99750    299.65502    255.83328   -3027.7761   -2582.0619    449.94729    12398.359 
   99800    309.32795    256.21427   -3040.4757   -2580.3738    49.091543    12396.583 
   99850     298.0786     255.8864   -3029.5467   -2586.1774    332.23778    12394.721 
   99900    296.18544    255.70748   -3023.5828   -2583.0294    426.46286    12392.901 
   99950    294.95336    255.59655   -3019.8849   -2581.1641    487.94276    12391.201 
  100000     308.1031    256.23432   -3041.1439   -2582.8639    11.941474    12389.577 
Loop time of 26.7301 on 1 procs for 100000 steps with 500 atoms

Performance: 323.232 ns/day, 0.074 hours/ns, 3741.106 timesteps/s
99.8% CPU use with 1 MPI tasks x 1 OpenMP threads

MPI task timing breakdown:
Section |  min time  |  avg time  |  max time  |%varavg| %total
---------------------------------------------------------------
Pair    | 22.111     | 22.111     | 22.111     |   0.0 | 82.72
Bond    | 0.0078402  | 0.0078402  | 0.0078402  |   0.0 |  0.03
Neigh   | 0.50993    | 0.50993    | 0.50993    |   0.0 |  1.91
Comm    | 0.78428    | 0.78428    | 0.78428    |   0.0 |  2.93
Output  | 0.018372   | 0.018372   | 0.018372   |   0.0 |  0.07
Modify  | 2.7353     | 2.7353     | 2.7353     |   0.0 | 10.23
Other   |            | 0.5637     |            |       |  2.11

Nlocal:    500 ave 500 max 500 min
Histogram: 1 0 0 0 0 0 0 0 0 0
Nghost:    1575 ave 1575 max 1575 min
Histogram: 1 0 0 0 0 0 0 0 0 0
Neighs:    14318 ave 14318 max 14318 min
Histogram: 1 0 0 0 0 0 0 0 0 0

Total # of neighbors = 14318
Ave neighs/atom = 28.636
Ave special neighs/atom = 0
Neighbor list builds = 612
Dangerous builds = 0

write_data      ${walker}/final_restart_file
write_data      4/final_restart_file

quit
