LAMMPS (19 May 2017)
Processor partition = 4
  using 1 OpenMP thread(s) per MPI task
# gREM variables
variable        lambda world 1000 1005 1010 1015 1020 1025 1030 1035 1040 1045 1050 1055 1060 1065 1070 1075
variable        walker world 0 1 2 3 4 5 6 7 8 9 10 11 12 13 14 15
variable        replica world 2 3 4 6 13 0 1 7 11 14 9 8 5 10 12 15

variable        T0 equal 300.0
variable        press equal 0.0

units           real
atom_style      full
pair_style      lj/cut 5.0

# LJ particles
read_data       ${walker}/restart_file
read_data       4/restart_file
  orthogonal box = (0.86617 0.86617 0.86617) to (24.1338 24.1338 24.1338)
  1 by 1 by 1 MPI processor grid
  reading atoms ...
  500 atoms
  reading velocities ...
  500 velocities
  0 = max # of 1-2 neighbors
  0 = max # of 1-3 neighbors
  0 = max # of 1-4 neighbors
  1 = max # of special neighbors

#dump            dump all xyz 1000 ${walker}/dump.xyz

fix             fxnpt all npt temp ${T0} ${T0} 1000.0 iso ${press} ${press} 10000.0
fix             fxnpt all npt temp 300 ${T0} 1000.0 iso ${press} ${press} 10000.0
fix             fxnpt all npt temp 300 300 1000.0 iso ${press} ${press} 10000.0
fix             fxnpt all npt temp 300 300 1000.0 iso 0 ${press} 10000.0
fix             fxnpt all npt temp 300 300 1000.0 iso 0 0 10000.0
fix             fxgREM all grem ${lambda} -.03 -30000 fxnpt
fix             fxgREM all grem 1020 -.03 -30000 fxnpt
thermo_modify   press fxgREM_press

thermo          50
thermo_style    custom step temp f_fxgREM pe etotal press vol
WARNING: New thermo_style command, previous thermo_modify settings will be lost (../output.cpp:705)
timestep        1.0

temper/grem     100000 1000 ${lambda} fxgREM fxnpt 10294 98392 ${walker}
temper/grem     100000 1000 1020 fxgREM fxnpt 10294 98392 ${walker}
temper/grem     100000 1000 1020 fxgREM fxnpt 10294 98392 4
Neighbor list info ...
  update every 1 steps, delay 10 steps, check yes
  max neighbors/atom: 2000, page size: 100000
  master list distance cutoff = 7
  ghost atom cutoff = 7
  binsize = 3.5, bins = 7 7 7
  1 neighbor lists, perpetual/occasional/extra = 1 0 0
  (1) pair lj/cut, perpetual
      attributes: half, newton on
      pair build: half/bin/newton
      stencil: half/bin/3d/newton
      bin: standard
Per MPI rank memory allocation (min/avg/max) = 5.72 | 5.72 | 5.72 Mbytes
Step Temp f_fxgREM PotEng TotEng Press Volume 
       0    328.03393    209.76098   -2992.0326    -2504.107   -307.42441    12596.738 
      50    335.94154    210.09367   -3003.1224   -2503.4348   -537.25181    12596.478 
     100    343.43282    210.43245   -3014.4149   -2503.5846   -831.51686    12595.586 
     150    336.24712     210.1422   -3004.7399   -2504.5978   -679.61594    12593.938 
     200    346.00758    210.44486   -3014.8287   -2500.1686   -964.97248    12591.547 
     250    349.00286    210.53763    -3017.921   -2498.8057   -1031.7167    12588.287 
     300    334.71782    210.19293   -3006.4308   -2508.5635   -660.45885    12584.134 
     350    329.61634    210.06162    -3002.054   -2511.7746   -422.87988    12579.269 
     400    325.63394    209.94177   -2998.0589   -2513.7031   -307.07571     12573.85 
     450    334.03525    210.25794   -3008.5979   -2511.7458   -605.53095    12567.909 
     500    331.81833    210.31914   -3010.6379   -2517.0833   -634.19709    12561.324 
     550     334.1815    210.54345   -3018.1149   -2521.0453   -698.14725    12554.061 
     600    326.83852     210.3329   -3011.0968   -2524.9492   -402.08248    12546.118 
     650    328.64874    210.42011   -3014.0037   -2525.1636   -358.49211    12537.635 
     700    331.59387     210.5647   -3018.8232   -2525.6025   -475.89673    12528.644 
     750    340.61948    211.01669   -3033.8897   -2527.2441   -831.62487    12519.055 
     800    326.71856    210.73061   -3024.3537   -2538.3846   -506.52379    12508.724 
     850    308.85044     210.2446   -3008.1535   -2548.7618    36.411118    12497.822 
     900    339.11584    211.08918    -3036.306   -2531.8969   -632.33829    12486.583 
     950    336.85012    211.09714   -3036.5714   -2535.5323   -488.96069    12474.729 
    1000     325.5106    210.85583   -3028.5275   -2544.3552   -45.284047    12462.318 
    1050    330.49177    216.08175   -3036.0583   -2544.4768   -105.30614    12449.581 
    1100    327.40226    216.12807   -3037.6023   -2550.6162   -16.897099    12436.531 
    1150    317.94576    215.84383   -3028.1276   -2555.2074    248.76354    12423.236 
    1200    332.96633    216.32075   -3044.0249   -2548.7627   -148.39574    12409.776 
    1250    331.98674    216.31733    -3043.911   -2550.1059   -59.615172    12396.016 
    1300    337.27288     216.4531   -3048.4368   -2546.7689   -35.358689    12381.952 
    1350     324.5384    216.18588   -3039.5293   -2556.8031    345.53832    12367.639 
    1400    334.84547    216.65986   -3055.3288   -2557.2715    112.99725    12353.224 
    1450    330.61482    216.60803   -3053.6009   -2561.8364    219.44909    12338.677 
    1500    337.31033    216.93425   -3064.4751   -2562.7516    70.341757    12324.018 
    1550    326.01784    216.65084   -3055.0279   -2570.1011    607.48995     12309.21 
    1600    321.37575    216.54473   -3051.4908   -2573.4688    959.14046    12294.508 
    1650    333.52109    217.07663   -3069.2209   -2573.1335    730.61861    12280.092 
    1700    329.41038    217.05482   -3068.4939   -2578.5209    901.37681    12265.902 
    1750    337.63658    217.37573   -3079.1911   -2576.9823    738.41188    12251.962 
    1800    324.23059    216.94407   -3064.8022   -2582.5338    1146.1089    12238.244 
    1850    315.42609    216.76257   -3058.7523   -2589.5799    1473.9768    12224.947 
    1900     330.7579    217.25307   -3075.1023    -2583.125     1033.827    12212.241 
    1950    349.36622    217.94608   -3098.2025   -2578.5467    530.19741    12199.865 
    2000    334.55943    217.49819    -3083.273   -2585.6412    1119.6493    12187.628 
    2050    342.88277    217.87691   -3095.8969   -2585.8848    1003.2701    12175.749 
    2100     340.6443    217.87784    -3095.928   -2589.2454    1131.7712    12164.203 
    2150    312.48144    217.06283    -3068.761   -2603.9685    1985.7358     12153.11 
    2200    333.25187    217.89305   -3096.4349    -2600.748    1446.9334    12142.812 
    2250    337.13547    218.06727   -3102.2423   -2600.7788    1282.9888    12133.113 
    2300    328.77581    217.90185   -3096.7282   -2607.6991     1491.553    12123.895 
    2350    338.70005    218.34217   -3111.4058   -2607.6152     1196.631    12115.234 
    2400    346.22955    218.61133   -3120.3775   -2605.3873    1094.1292    12107.006 
    2450    340.86554    218.46366   -3115.4553   -2608.4436    1321.7467    12099.154 
    2500    317.08948    217.88044   -3096.0146    -2624.368    1994.2752    12091.805 
    2550    328.40717    218.30516    -3110.172   -2621.6912    1701.5834    12085.227 
    2600    331.44023    218.43125    -3114.375   -2621.3828    1540.5403    12079.355 
    2650    321.08048    218.20203   -3106.7342   -2629.1513    1766.9005    12074.078 
    2700    314.18438    218.00895   -3100.2982   -2632.9728    1958.3737    12069.495 
    2750    317.51457    218.21322   -3107.1072   -2634.8283    1750.4084    12065.699 
    2800    333.10259    218.82471   -3127.4903   -2632.0255    1276.3643    12062.579 
    2850     321.5166    218.43179    -3114.393   -2636.1614    1642.0811    12059.964 
    2900    332.97009    218.94969   -3131.6563   -2636.3885    1188.4771    12057.921 
    2950    328.53502    218.87548   -3129.1826   -2640.5116    1178.7403    12056.275 
    3000    320.81117    218.59358    -3119.786   -2642.6037     1385.637    12055.005 
    3050    326.24263    218.89047   -3129.6825   -2644.4213    1167.6284    12054.185 
    3100    317.11764    218.70769   -3123.5898   -2651.9013    1307.1524    12053.769 
    3150    323.34962    219.05745   -3135.2484   -2654.2904    1066.2868    12053.763 
    3200    302.83255    218.45424   -3115.1414   -2664.7009    1692.8276    12054.124 
    3250    308.18865    218.63809   -3121.2696   -2662.8624     1570.193    12055.093 
    3300    323.37018    219.23753    -3141.251   -2660.2623    1036.0423    12056.613 
    3350    313.75149     218.9198     -3130.66   -2663.9785    1216.8942    12058.461 
    3400    312.45909    218.90257   -3130.0855   -2665.3263    1277.7329    12060.677 
    3450    309.73159    218.81851   -3127.2836   -2666.5813    1318.2878    12063.311 
    3500    315.74239    219.09608    -3136.536   -2666.8931    1035.9625    12066.375 
    3550    316.89877    219.13094   -3137.6981   -2666.3352    933.13043    12069.718 
    3600    292.64501    218.37885   -3112.6282   -2677.3409    1504.6642    12073.322 
    3650     302.1564    218.79647   -3126.5489   -2677.1141    1006.2342    12077.411 
    3700    311.49701    219.15297   -3138.4324   -2675.1042    635.39657    12081.777 
    3750    292.95405    218.67863   -3122.6209   -2686.8739    1059.6537     12086.27 
    3800     304.1122    219.06185    -3135.395   -2683.0512    574.56005    12091.011 
    3850    323.64286    219.69232   -3156.4105   -2675.0163   -126.91123     12095.77 
    3900    313.45062    219.42992   -3147.6641     -2681.43    138.77308    12100.226 
    3950    296.66932    218.94754   -3131.5846   -2690.3115    542.93875    12104.496 
    4000    309.57855    219.47507    -3149.169   -2688.6944   -27.642305    12108.732 
    4050    307.15398    219.30157   -3143.3858   -2686.5175    9.2806389    12112.727 
    4100    301.64766    219.13736    -3137.912    -2689.234    116.03389    12116.461 
    4150    296.35371    219.08079   -3136.0264   -2695.2227    157.29699    12119.999 
    4200    298.59073    219.15759   -3138.5864   -2694.4553    65.604515    12123.353 
    4250    287.74017    218.88797   -3129.5991   -2701.6074    288.47015    12126.525 
    4300    294.30636    219.17157   -3139.0525   -2701.2941   -45.459338    12129.564 
    4350    295.35217    219.13923   -3137.9744   -2698.6604   -229.67226    12132.323 
    4400    284.43854    218.82935   -3127.6452   -2704.5644    17.961166    12134.734 
    4450    284.74099    218.86566   -3128.8552   -2705.3246     15.88465    12136.897 
    4500    308.35244    219.71215   -3157.0715   -2698.4206    -722.2113    12138.782 
    4550    295.98046    219.31452   -3143.8173   -2703.5688   -349.90996    12140.099 
    4600    294.78576    219.37145    -3145.715   -2707.2435   -329.88288    12140.938 
    4650    287.57216    219.09222   -3136.4075   -2708.6657   -160.48879    12141.382 
    4700     284.8189    219.12176    -3137.392   -2713.7455   -105.16113    12141.499 
    4750    296.14165    219.47818   -3149.2725   -2708.7843   -414.09976    12141.315 
    4800    295.99641    219.46063   -3148.6876   -2708.4154    -423.3983    12140.688 
    4850    274.33625    218.73578   -3124.5258   -2716.4715    146.63006    12139.628 
    4900    285.15254    219.13618   -3137.8728     -2713.73   -158.02136    12138.374 
    4950    291.38651    219.28751   -3142.9169   -2709.5016   -313.55756    12136.831 
    5000    286.82007    219.17181   -3139.0605   -2712.4374    -203.0909    12134.915 
    5050     301.7401    219.64783   -3154.9276    -2706.112   -627.45602    12132.618 
    5100    297.17415    219.52355    -3150.785    -2708.761   -491.03463    12129.787 
    5150    298.46477    219.54333   -3151.4443   -2707.5005   -416.93581    12126.446 
    5200    279.81652    219.02129    -3134.043   -2717.8371    149.45392    12122.701 
    5250    275.61894     218.9117   -3130.3899   -2720.4276     280.5609    12118.812 
    5300    298.35075      219.639   -3154.6334   -2710.8593   -388.21912    12114.801 
    5350    289.35625     219.4726   -3149.0867   -2718.6912   -253.62495    12110.419 
    5400    296.12726    219.67039   -3155.6797   -2715.2128   -319.47652     12105.66 
    5450    264.99414    218.71197   -3123.7322   -2729.5735    601.26172    12100.594 
    5500    285.92022    219.29188   -3143.0627   -2717.7781    110.98542    12095.557 
    5550    293.94036    219.61564   -3153.8546   -2716.6406   -88.344193    12090.411 
    5600    301.89318    219.86192   -3162.0641   -2713.0209   -232.43508    12085.007 
    5650    296.08664    219.68584   -3156.1946   -2715.7881    42.073174    12079.297 
    5700    295.87455    219.64039   -3154.6798   -2714.5888    103.41547    12073.391 
    5750    299.83878    219.75067   -3158.3556   -2712.3682   -21.220764    12067.309 
    5800    281.00738    219.15903   -3138.6343   -2720.6571    613.33548    12061.052 
    5850    290.06472    219.43508   -3147.8359   -2716.3866    554.52904    12054.874 
    5900     292.4437    219.51457   -3150.4858    -2715.498    581.78857    12048.816 
    5950    299.57606    219.74828   -3158.2759   -2712.6792    465.20072    12042.849 
    6000    294.65501     219.5206   -3150.6866   -2712.4096    669.06083    12036.945 
    6050    300.96582    224.83286   -3161.0952   -2713.4313    513.75454    12031.177 
    6100    299.21324    224.74877   -3158.2923   -2713.2353    680.88822    12025.518 
    6150    289.17346    224.36763   -3145.5878   -2715.4642    1072.3954    12020.039 
    6200    303.45897    224.83678   -3161.2259   -2709.8536    697.89075    12014.893 
    6250    295.42058    224.56361   -3152.1203   -2712.7045    1014.1843    12009.961 
    6300    294.20106    224.63231   -3154.4104   -2716.8086    1081.0667    12005.344 
    6350    294.50864     224.5492     -3151.64   -2713.5807    1102.1827     12001.11 
    6400    305.20954    224.84856   -3161.6187   -2707.6426    850.54184     11997.23 
    6450    304.30766    224.76794   -3158.9312   -2706.2967    981.61563    11993.595 
    6500    301.66707    224.60626   -3153.5418   -2704.8349    1193.7301    11990.285 
    6550    308.20006    224.75884   -3158.6279   -2700.2037    1103.4692    11987.397 
    6600    291.41328    224.18906   -3139.6352   -2706.1801    1656.2956    11984.904 
    6650    291.60745    224.26077   -3142.0257   -2708.2817    1664.4236    11983.046 
    6700     297.3127    224.38429   -3146.1431    -2703.913    1566.3855    11981.859 
    6750     317.0688    225.03648   -3167.8827   -2696.2669    1026.3339    11981.237 
    6800    308.74117    224.71179   -3157.0597   -2697.8306    1370.2201    11980.981 
    6850    296.32191     224.3284   -3144.2801   -2703.5237    1782.4549    11981.213 
    6900    305.88534    224.62006   -3154.0021   -2699.0208    1451.8405    11982.116 
    6950     306.7477    224.69632   -3156.5441   -2700.2801     1339.142    11983.561 
    7000    303.45918    224.49325   -3149.7752   -2698.4026    1443.8327    11985.492 
    7050     308.2658    224.65198   -3155.0659   -2696.5439    1345.7703    11987.936 
    7100    290.06111    224.00095    -3133.365   -2701.9211    1840.7755    11990.882 
    7150    297.38109    224.22135   -3140.7115   -2698.3797    1489.5423    11994.526 
    7200    304.23131    224.38407   -3146.1358   -2693.6148    1302.8794    11998.732 
    7250    297.45004    224.17614   -3139.2045   -2696.7701    1518.1372    12003.376 
    7300    306.62789     224.4694     -3148.98   -2692.8943    1133.2301    12008.548 
    7350    298.43679    224.22573   -3140.8578   -2696.9557    1326.6479    12014.111 
    7400    296.06829    224.13062   -3137.6873   -2697.3081    1343.1533    12020.115 
    7450     303.3231     224.2559   -3141.8635   -2690.6933    1046.3784     12026.57 
    7500    303.35164    224.25443   -3141.8142   -2690.6016    1063.7328    12033.338 
    7550    303.55498    224.25144   -3141.7145   -2690.1995    1039.7171    12040.405 
    7600    292.94188    223.79809   -3126.6031   -2690.8742    1305.3421    12047.792 
    7650    304.29451    224.19786   -3139.9288   -2687.3138    869.72639    12055.567 
    7700    302.34204    224.10173   -3136.7244   -2687.0135    857.36841    12063.563 
    7750    299.44879     224.0027   -3133.4232   -2688.0158    893.70205    12071.743 
    7800    302.30308     224.0477   -3134.9233   -2685.2704    697.28469    12080.131 
    7850    305.02998    224.07521   -3135.8402   -2682.1313    476.53589    12088.636 
    7900    307.01923    224.12921   -3137.6402   -2680.9724    295.00826    12097.126 
    7950    313.13435    224.25762   -3141.9206    -2676.157    152.46538    12105.494 
    8000    301.91074    223.93274   -3131.0914   -2682.0221    396.44492    12113.692 
    8050    292.35504    223.56667   -3118.8891   -2684.0331     567.5713    12121.842 
    8100     295.7166    223.68033   -3122.6778   -2682.8218    380.58521    12129.995 
    8150    291.66671    223.57807   -3119.2691    -2685.437    406.92737    12138.099 
    8200    292.58077    223.63892   -3121.2973   -2686.1056    307.67521    12146.152 
    8250    294.90346    223.70539    -3123.513   -2684.8664    226.84477    12154.103 
    8300    283.08876     223.2024   -3106.7468   -2685.6737    582.97363    12161.944 
    8350    303.33105    223.83734   -3127.9115   -2676.7295   -87.404271    12169.779 
    8400    312.83204    224.14701   -3138.2338   -2672.9199   -410.19911    12177.332 
    8450    299.65452    223.56531   -3118.8436   -2673.1303    26.187168    12184.427 
    8500    296.58871    223.37361   -3112.4536   -2671.3003    53.976954    12191.244 
    8550    313.10142    223.88206   -3129.4019   -2663.6873   -530.76406    12197.791 
    8600    311.92451    223.87722   -3129.2407   -2665.2766   -615.72582    12203.827 
    8650    312.89498    223.97636   -3132.5453   -2667.1377   -724.31945    12209.237 
    8700    284.64733    222.95059   -3098.3529   -2674.9616    112.18018    12214.053 
    8750    289.30288    223.10433   -3103.4775   -2673.1614    62.196077    12218.619 
    8800    304.90931    223.52866    -3117.622   -2664.0925   -313.69442    12222.955 
    8850    308.93472    223.59402   -3119.8005   -2660.2835   -433.84416    12226.885 
    8900    305.18253    223.51276   -3117.0919    -2663.156   -361.87126    12230.322 
    8950    299.38547    223.32915   -3110.9715   -2665.6583   -289.00128    12233.301 
    9000    293.86186    223.12768   -3104.2559   -2667.1587   -119.32836     12235.87 
    9050    290.42124    222.99068   -3099.6894   -2667.7098   -59.397112    12238.142 
    9100    313.22145    223.73012   -3124.3375   -2658.4443    -715.9261    12240.083 
    9150    289.56099    222.85684   -3095.2281   -2664.5281    83.048873    12241.483 
    9200    288.41094    222.75885   -3091.9616   -2662.9722    241.89127    12242.653 
    9250    295.44981    222.95319   -3098.4396   -2658.9804   -16.006296    12243.714 
    9300    310.89608    223.44042   -3114.6806   -2652.2462   -487.01008    12244.515 
    9350    305.78195    223.15101   -3105.0337   -2650.2062   -333.91681    12244.843 
    9400    312.02945    223.29563   -3109.8542    -2645.734   -521.00672    12244.725 
    9450    301.49234    223.05384   -3101.7946   -2653.3476   -160.84302    12244.128 
    9500    301.85951    223.04081   -3101.3604   -2652.3672   -64.202001    12243.203 
    9550    315.60173    223.44371   -3114.7905   -2645.3568   -432.07035     12241.98 
    9600    305.69093    223.09882    -3103.294   -2648.6019   -174.63051    12240.337 
    9650    311.27473    223.17502   -3105.8339   -2642.8363   -284.74942    12238.346 
    9700    310.61046    223.11644   -3103.8812   -2641.8717   -192.47248    12235.981 
    9750    303.14848    222.83796   -3094.5985   -2643.6881    145.54167    12233.306 
    9800    306.38506    222.99378   -3099.7928   -2644.0683    189.93846    12230.464 
    9850    303.11625    222.79619   -3093.2064   -2642.3439    306.09674    12227.523 
    9900    320.80104    223.42073   -3114.0243    -2636.857    -221.3039    12224.475 
    9950    312.65001    223.21776   -3107.2587   -2642.2155    21.424363    12221.134 
   10000    307.28455    223.03897   -3101.2989   -2644.2364    253.32924    12217.564 
   10050    281.41236    222.18567   -3072.8557   -2654.2761      1018.58    12213.962 
   10100    316.59484    223.34114   -3111.3712   -2640.4604   -33.522098    12210.596 
   10150    313.79491     223.1914     -3106.38   -2639.6338      52.5339    12207.073 
   10200    305.33318    222.93101   -3097.7003   -2643.5403    446.40566    12203.363 
   10250    306.23513    222.83968   -3094.6559   -2639.1543    590.33536    12199.675 
   10300    318.44344    223.20659   -3106.8864    -2633.226    261.11424    12196.081 
   10350    323.94273    223.37395    -3112.465   -2630.6248    80.811057    12192.408 
   10400    323.00071    223.31149   -3110.3829   -2629.9439     214.0877    12188.558 
   10450    316.18022    223.09276   -3103.0919   -2632.7978    624.24909    12184.623 
   10500    297.89348    222.58236   -3086.0787   -2642.9847    1266.9864     12180.82 
   10550    309.48532    222.92829   -3097.6096   -2637.2737     974.9725    12177.428 
   10600    316.46645    223.18288   -3106.0959    -2635.376    771.78301    12174.342 
   10650    310.44985    223.00111   -3100.0369   -2638.2663    904.77672    12171.472 
   10700     323.8836    223.44439   -3114.8129   -2633.0606     498.9137    12168.839 
   10750    313.79554    223.07124   -3102.3745   -2635.6274    793.00332    12166.291 
   10800    316.82225    223.24006    -3108.002    -2636.753    691.85153    12163.898 
   10850    317.52881    223.39535   -3113.1784   -2640.8784    594.50357    12161.662 
   10900    313.44918    223.24263   -3108.0875   -2641.8556    646.17582    12159.538 
   10950    312.85821    223.24271   -3108.0902   -2642.7373    692.49579    12157.515 
   11000    307.73222    223.09201   -3103.0668   -2645.3385    823.06164    12155.668 
   11050    317.84393    223.38369   -3112.7895   -2640.0208    496.44208    12153.999 
   11100    313.20681    223.26325   -3108.7748   -2642.9035    648.72411    12152.379 
   11150    315.82659    223.39503   -3113.1677   -2643.3996    556.72307    12150.875 
   11200    305.84939    223.17468   -3105.8226   -2650.8948    835.14777    12149.467 
   11250    310.92857    223.38213   -3112.7377    -2650.255    793.43042    12148.238 
   11300    304.10013    223.19552   -3106.5175   -2654.1916    886.32969    12147.212 
   11350    299.34641    223.18737   -3106.2456   -2660.9905    792.26902    12146.428 
   11400    311.00544    223.64518   -3121.5059   -2658.9089    376.22743    12145.822 
   11450    296.66649    223.31215    -3110.405   -2669.1361    695.59596     12145.24 
   11500    310.92507    223.87367   -3129.1222   -2666.6447    193.41774     12144.74 
   11550      295.198    223.38093   -3112.6977    -2673.613    534.64982    12144.184 
   11600    302.68403    223.72552   -3124.1839   -2673.9643    131.78471    12143.649 
   11650     310.6185     224.0092   -3133.6399   -2671.6184   -220.18014    12142.964 
   11700     306.1156    223.97794   -3132.5981   -2677.2743   -52.202032    12141.947 
   11750    294.66588    223.62126   -3120.7086   -2682.4154    367.83125    12140.693 
   11800    301.95889    223.88999   -3129.6664   -2680.5254    141.16684    12139.375 
   11850    293.70747    223.74616    -3124.872   -2688.0044     270.7306    12137.947 
   11900    296.65381    223.82381   -3127.4602   -2686.2102     194.4786    12136.426 
   11950    289.31932    223.69507   -3123.1691   -2692.8285    350.87112    12134.815 
   12000    300.42279    224.08889   -3136.2964   -2689.4403   -61.384598    12133.168 
   12050    312.99635    224.57514   -3152.5047   -2686.9464   -484.49374    12131.265 
   12100    289.96356    223.81288   -3127.0962   -2695.7973    246.15232    12128.943 
   12150     296.8882    224.11561   -3137.1869   -2695.5882    112.87706     12126.48 
   12200    286.78042    223.76944   -3125.6479   -2699.0837    501.73476    12123.912 
   12250    296.61155    224.06413   -3135.4711   -2694.2839    267.22619    12121.362 
   12300    303.05035    224.35567   -3145.1891   -2694.4247    41.216099    12118.757 
   12350    302.59532    224.34631   -3144.8772   -2694.7895    124.45351    12115.966 
   12400    289.74633    223.91439   -3130.4796   -2699.5039    504.58882    12113.052 
   12450    301.99475    224.33313   -3144.4378   -2695.2435    84.765549    12110.154 
   12500     295.3918    224.11128   -3137.0426   -2697.6696    253.24884    12107.138 
   12550    298.00245     224.2191   -3140.6366   -2697.3805    193.71169    12104.031 
   12600    287.80329    223.89092   -3129.6973   -2701.6117     467.2192    12100.846 
   12650    287.96458    223.88541   -3129.5137   -2701.1882    443.65592    12097.696 
   12700    297.01405    224.23043   -3141.0144   -2699.2285    229.55253    12094.561 
   12750    296.51796    224.18542   -3139.5139   -2698.4659     308.6109    12091.363 
   12800    292.99144    224.06627   -3135.5425   -2699.7399    405.74264    12088.122 
   12850     294.3864    224.08592   -3136.1974   -2698.3199    372.35041    12084.881 
   12900    302.43639    224.31931   -3143.9771   -2694.1259    125.28332     12081.63 
   12950    295.79912    224.13795   -3137.9318    -2697.953    319.68314    12078.262 
   13000    300.88745    224.35492    -3145.164   -2697.6167    209.24398    12074.844 
   13050    296.40661    224.24885   -3141.6283    -2700.746    374.13426    12071.352 
   13100    296.75836    224.17309    -3139.103   -2697.6975    554.48382    12067.843 
   13150    289.43374    223.96644   -3132.2146   -2701.7038    857.75493    12064.442 
   13200    299.59726    224.31002   -3143.6675   -2698.0392    534.83512    12061.251 
   13250    300.97153    224.40411   -3146.8038   -2699.1314      496.972    12058.151 
   13300    303.33439    224.40913    -3146.971   -2695.7841    532.86573    12055.108 
   13350     297.0484    224.33526   -3144.5085   -2702.6715    667.77269    12052.131 
   13400    293.29394    224.12381   -3137.4603   -2701.2078    819.37357    12049.305 
   13450    300.29356    224.38879    -3146.293   -2699.6291    636.15425    12046.695 
   13500    295.70649    224.32234   -3144.0781   -2704.2371    728.23411    12044.221 
   13550    291.13628    224.15727   -3138.5757   -2705.5325     849.7605    12041.931 
   13600    297.96676    224.28794   -3142.9314   -2699.7285    700.75789    12039.885 
   13650    305.82019    224.53184   -3151.0614   -2696.1771     483.3428    12037.989 
   13700    310.75268    224.71496   -3157.1655   -2694.9444     390.8657    12036.124 
   13750     298.3415    224.35146   -3145.0488   -2701.2884    830.84498    12034.288 
   13800    299.24912    224.48806    -3149.602   -2704.4916    907.52286    12032.641 
   13850    296.42706    224.30653   -3143.5511   -2702.6384    1067.7622    12031.277 
   13900    295.40758    224.26771   -3142.2571   -2702.8607    1056.4325    12030.246 
   13950    292.56838    224.17554   -3139.1846   -2704.0113    1155.9056    12029.557 
   14000    293.74489    224.22394   -3140.7979   -2703.8746    1157.9318    12029.254 
   14050    306.94801    219.60389    -3153.463   -2696.9011    764.32397    12029.321 
   14100    306.94987    219.53414    -3151.138   -2694.5733    783.25203    12029.575 
   14150    307.32065    219.54071   -3151.3568   -2694.2407    781.00093    12029.985 
   14200    298.28004    219.32362   -3144.1208   -2700.4518    921.16467    12030.574 
   14250    292.83503    219.18088   -3139.3625   -2703.7926    950.21743    12031.393 
   14300    308.07197    219.63682   -3154.5606   -2696.3269    447.24518    12032.454 
   14350    311.35518    219.76273   -3158.7576   -2695.6403    423.13553    12033.523 
   14400    305.22375    219.55949   -3151.9831   -2697.9859    755.31066    12034.582 
   14450    302.33126    219.49447   -3149.8157   -2700.1208    770.53862    12035.796 
   14500    310.67231    219.76568   -3158.8561   -2696.7546    450.08955    12037.137 
   14550     292.4962    219.18005   -3139.3351   -2704.2692    877.54757    12038.533 
   14600    302.64346    219.48702   -3149.5675   -2699.4083    605.20301    12040.097 
   14650    297.79362    219.24168   -3141.3893   -2698.4439    769.94673    12041.766 
   14700    304.13387    219.45238   -3148.4128   -2696.0367    548.32276    12043.565 
   14750    297.39012    219.35903   -3145.3009   -2702.9556    726.47758    12045.416 
   14800    289.58277    219.08506   -3136.1685   -2705.4361    938.73508    12047.425 
   14850    310.84087    219.74258   -3158.0859   -2695.7337    220.15571    12049.632 
   14900    305.47157    219.67405   -3155.8017   -2701.4359    260.65917    12051.746 
   14950    308.10441    219.71092   -3157.0306   -2698.7486    272.65821    12053.734 
   15000    297.41004    219.38894   -3146.2979    -2703.923    517.57866    12055.634 
   15050    309.97245    219.81126   -3160.3754   -2699.3148    126.05287    12057.519 
   15100    303.67626    219.67861   -3155.9535   -2704.2581    270.07926    12059.257 
   15150    288.25596    219.15025   -3138.3417   -2709.5828    681.27646    12060.919 
   15200    295.31476    219.31511   -3143.8371   -2704.5788    525.95545    12062.675 
   15250     305.2634    219.63766   -3154.5886   -2700.5324    303.60992    12064.458 
   15300    281.31717    218.87884   -3129.2948   -2710.8568    898.42074    12066.205 
   15350    289.62826    219.09899   -3136.6329   -2705.8329    581.60722    12068.131 
   15400    298.50125    219.40759   -3146.9196   -2702.9216    304.37113    12070.145 
   15450    303.86767    219.59406   -3153.1352   -2701.1551    145.34062    12072.081 
   15500    307.08948     219.6803   -3156.0101   -2699.2378   -2.1902468    12073.831 
   15550    299.20906    219.42889   -3147.6297   -2702.5789    179.87339     12075.35 
   15600    291.26142    219.21941   -3140.6472   -2707.4179    373.72978    12076.731 
   15650    298.30348    219.47067   -3149.0224   -2705.3186    196.90093    12078.044 
   15700    287.56762    219.09454   -3136.4846   -2708.7496     468.6566    12079.261 
   15750    297.72269    219.45427   -3148.4756   -2705.6356    116.48516    12080.438 
   15800    297.20877    219.39893    -3146.631   -2704.5555    127.77644    12081.458 
   15850    292.41882     219.2161   -3140.5365   -2705.5857    223.93748    12082.299 
   15900     294.4803    219.34668   -3144.8894   -2706.8723    97.307651    12083.014 
   15950    311.31971    219.88891   -3162.9638   -2699.8993   -362.24405    12083.526 
   16000    299.67525    219.51454   -3150.4847   -2704.7405   -28.799777    12083.637 
   16050    283.96655    219.05973   -3135.3245   -2712.9458    379.05484     12083.49 
   16100    294.83818    219.31616    -3143.872   -2705.3225    99.697858    12083.279 
   16150    290.80204    219.23181   -3141.0603   -2708.5143    261.85037    12082.915 
   16200    284.62067    219.01738   -3133.9126   -2710.5609    516.16016    12082.455 
   16250    302.71732    219.65638   -3155.2127   -2704.9436    14.681433    12081.995 
   16300    299.37371     219.6082   -3153.6068   -2708.3111     112.3207    12081.341 
   16350    288.46639    219.25005   -3141.6685   -2712.5966    411.70889     12080.52 
   16400    288.98588    219.28707   -3142.9024   -2713.0578    351.72918     12079.66 
   16450    283.27407    219.12687   -3137.5623   -2716.2136    454.24941     12078.78 
   16500     310.3482     219.8732     -3162.44   -2700.8206   -285.56922     12077.87 
   16550     293.8826    219.36853   -3145.6176   -2708.4895    169.26207    12076.633 
   16600    288.88319    219.16695   -3138.8983   -2709.2065    387.18952    12075.223 
   16650    292.26262    219.33946   -3144.6488   -2709.9303    361.45969    12073.783 
   16700    298.26365    219.58861   -3152.9537   -2709.3091    180.17888    12072.305 
   16750    308.65433    219.81558   -3160.5193   -2701.4194   -114.16702    12070.681 
   16800    291.90834    219.37009   -3145.6695    -2711.478    335.03433    12068.794 
   16850    293.42831    219.43697   -3147.8989   -2711.4465    342.21559    12066.834 
   16900    295.87096    219.52457   -3150.8191   -2710.7335    316.83501    12064.842 
   16950    296.11749    219.49248   -3149.7494   -2709.2971    302.97844     12062.78 
   17000    291.84628    219.38688   -3146.2293   -2712.1301    374.05893    12060.662 
   17050     300.3913    224.66107   -3155.3691   -2708.5598    162.46792    12058.504 
   17100    297.21683    224.56706   -3152.2354   -2710.1479    284.72273    12056.239 
   17150    287.17371     224.2149   -3140.4967   -2713.3475    586.30694    12053.936 
   17200    296.31965    224.45382   -3148.4606   -2707.7076    422.83874    12051.696 
   17250    294.99258    224.36926   -3145.6419   -2706.8628    599.47846    12049.486 
   17300    295.45781    224.49298   -3149.7662   -2710.2951    632.77157    12047.374 
   17350    290.92321    224.38529   -3146.1765   -2713.4503      839.746    12045.404 
   17400    285.09514    224.12973   -3137.6578   -2713.6004    1068.1193    12043.677 
   17450    300.17973    224.51778   -3150.5926    -2704.098    634.98616    12042.258 
   17500    292.86438    224.36181   -3145.3936   -2709.7801    852.55342    12041.003 
   17550    304.98747    224.69154   -3156.3845   -2702.7388    591.14106    12039.957 
   17600    298.99044    224.49763   -3149.9211   -2705.1955    677.21243    12039.034 
   17650     302.3547    224.61243   -3153.7476   -2704.0179    563.28164    12038.218 
   17700    297.81227    224.30444   -3143.4814   -2700.5082    763.39272    12037.499 
   17750    290.54146     224.1418   -3138.0602   -2705.9018    1040.3532    12036.962 
   17800    279.47424    223.68948   -3122.9826   -2707.2858    1450.1416    12036.779 
   17850    300.49387    224.30631   -3143.5436   -2696.5818    859.25273    12037.086 
   17900    293.38852    224.06993   -3135.6642    -2699.271    962.23685    12037.676 
   17950    305.58566    224.44036   -3148.0118   -2693.4763    630.64741    12038.512 
   18000    308.82157    224.55446   -3151.8152   -2692.4665    596.33236    12039.484 
   18050     298.1375    224.15322   -3138.4406   -2694.9837    965.78973    12040.569 
   18100    310.48829    224.49742    -3149.914   -2688.0862    666.07977    12041.899 
   18150    299.51401    224.03911   -3134.6371   -2689.1327    1037.6963    12043.398 
   18200    308.76181    224.29233   -3143.0776   -2683.8178    754.17814    12045.153 
   18250    301.99339    224.10187    -3136.729   -2687.5367    863.61917    12047.108 
   18300    293.98363     223.8248   -3127.4932   -2690.2148    1072.3568    12049.291 
   18350    306.99921    224.21966   -3140.6554   -2684.0174    826.33904    12051.781 
   18400    294.62047    223.75335   -3125.1116    -2686.886    1355.0572    12054.529 
   18450    297.29066    223.82446   -3127.4819   -2685.2846    1312.5621    12057.725 
   18500    309.35397    224.17191   -3139.0637   -2678.9231    945.26745    12061.366 
   18550    301.98165    223.89661    -3129.887   -2680.7122    1054.6129    12065.312 
   18600    306.53023    224.07047   -3135.6824   -2679.7419     806.3055    12069.556 
   18650    309.16916    224.07897   -3135.9657      -2676.1    680.14251    12074.006 
   18700    315.69649    224.20588   -3140.1961   -2670.6215    465.72138    12078.555 
   18750    302.47108    223.81647   -3127.2156   -2677.3128    802.50313    12083.134 
   18800    299.97483    223.74331   -3124.7771   -2678.5873    825.18981    12087.876 
   18850    290.70237    223.33139   -3111.0464   -2678.6486    1098.4397    12092.843 
   18900    306.73663    223.92945   -3130.9817   -2674.7342    618.53248    12098.113 
   18950    305.25185    223.74707   -3124.9022   -2670.8632    656.05583    12103.516 
   19000    314.89783    223.99539   -3133.1795   -2664.7928    335.59044     12108.99 
   19050    311.78331    218.89857   -3129.9524   -2666.1983    372.46912    12114.407 
   19100    318.17448    219.13741   -3137.9138   -2664.6534    226.80599     12119.74 
   19150    311.30024     218.8878   -3129.5932   -2666.5577    463.32665     12124.94 
   19200    300.38332    218.56567   -3118.8556   -2672.0582    774.13008    12130.138 
   19250    312.93914    218.92058   -3130.6858   -2665.2126     346.2388    12135.445 
   19300    302.85001    218.52425   -3117.4749   -2667.0085    532.38501    12140.701 
   19350    305.88883    218.56438   -3118.8126   -2663.8262    479.28116    12145.949 
   19400    299.90045    218.36326   -3112.1087   -2666.0295    643.25983    12151.214 
   19450    302.57934    218.48701   -3116.2335   -2666.1697    459.41873    12156.539 
   19500    317.36553      218.934   -3131.1335   -2659.0763   -5.7389896    12161.819 
   19550     316.8336    218.96294   -3132.0981   -2660.8321   -123.46926    12166.851 
   19600    295.96162    218.25458    -3108.486   -2668.2655    402.84329    12171.568 
   19650    298.80583    218.33043   -3111.0143   -2666.5633    317.49292    12176.209 
   19700    317.74793     218.9007   -3130.0232   -2657.3972   -269.28955    12180.743 
   19750    313.40626    218.60505   -3120.1682   -2654.0002   -176.26376    12184.894 
   19800    312.59735     218.6481   -3121.6033   -2656.6384   -225.23664    12188.662 
   19850      308.675    218.49339   -3116.4465   -2657.3158   -64.964894    12192.056 
   19900    301.05107    218.37808   -3112.6027    -2664.812    162.41827    12195.139 
   19950    293.07137    218.06651   -3102.2169   -2666.2955    418.28744    12198.062 
   20000    299.71055    218.19328   -3106.4427   -2660.6459    217.94543    12200.929 
   20050    298.96858    213.34112   -3111.3706   -2666.6775    135.48209    12203.655 
   20100    306.38881    213.52688   -3117.5627   -2661.8326   -133.74012    12206.178 
   20150    321.79294    213.99579   -3133.1931   -2654.5505   -628.18687    12208.329 
   20200    313.52654    213.71578   -3123.8593   -2657.5123   -483.47264     12209.89 
   20250    298.97207     213.3415   -3111.3835   -2666.6852   -171.97905    12210.925 
   20300    305.64231    213.53594   -3117.8646   -2663.2448   -401.95934    12211.554 
   20350    322.19621    214.07119   -3135.7063   -2656.4639   -870.41836    12211.673 
   20400     315.2998    213.82983    -3127.661   -2658.6765   -668.70739    12211.094 
   20450     317.0654    213.90008   -3130.0025   -2658.3918   -583.98678    12209.858 
   20500    312.93053    213.68051   -3122.6837   -2657.2233   -335.54985    12208.048 
   20550     309.1143    213.68895   -3122.9651    -2663.181   -290.63057     12205.77 
   20600    298.78099    213.38725   -3112.9084   -2668.4943   -67.687954    12203.085 
   20650      302.077    213.61613   -3120.5377    -2671.221   -243.86726    12200.083 
   20700    294.54731    213.35863   -3111.9542   -2673.8374   -21.918357    12196.734 
   20750    295.80237    213.47737   -3115.9125   -2675.9289   -57.358514    12193.103 
   20800    295.42223    213.58222   -3119.4073   -2679.9891   -128.20345    12189.209 
   20850    306.76017    213.90687   -3130.2289   -2673.9464   -437.36233    12185.002 
   20900    298.08457    213.67103   -3122.3676   -2678.9894   -223.97521    12180.345 
   20950    305.24586    214.02929   -3134.3097   -2680.2796   -404.26172    12175.288 
   21000    299.93844    213.90405   -3130.1351   -2683.9994   -266.64842    12169.799 
   21050    293.40348     213.6541   -3121.8032   -2685.3877   -105.65776     12163.93 
   21100    291.57734    213.70337   -3123.4457   -2689.7465   -72.792731    12157.766 
   21150    292.56377    213.91244   -3130.4147   -2695.2483   -164.42001    12151.338 
   21200    298.69084    214.14705   -3138.2348   -2693.9548   -361.43659    12144.597 
   21250    302.55898    214.32676   -3144.2253   -2694.1918   -500.73138    12137.435 
   21300     302.1818    214.39861   -3146.6203   -2697.1477   -457.19948    12129.771 
   21350     297.9469    214.28827   -3142.9422   -2699.7688   -189.09063    12121.659 
   21400    305.57201    214.58154   -3152.7181   -2698.2029     -296.309    12113.205 
   21450    300.75007    214.53324   -3151.1078   -2703.7649   -86.179077    12104.402 
   21500    300.33912    214.61009   -3153.6698   -2706.9381   -80.910277    12095.339 
   21550    299.20551    214.63313   -3154.4376   -2709.3921   -31.840321    12086.024 
   21600    293.11444    214.40126   -3146.7086    -2710.723     235.7984    12076.498 
   21650    290.95556     214.3689   -3145.6301   -2712.8557    346.74424    12066.883 
   21700     295.5436    214.55427   -3151.8089   -2712.2102     267.3039    12057.248 
   21750    303.08402    214.78881    -3159.627   -2708.8125    125.75952    12047.572 
   21800     304.4872    214.92899   -3164.2997    -2711.398    144.99971    12037.768 
   21850    292.39608    214.57979   -3152.6597   -2717.7427    526.94475    12027.853 
   21900    299.91316    214.83656   -3161.2187   -2715.1206    422.54701    12018.002 
   21950     305.6875    215.07351   -3169.1171   -2714.4301     364.9979    12008.189 
   22000    291.97455     214.6767   -3155.8899   -2721.5999     888.1776    11998.412 
   22050    309.56725    210.25732    -3175.244   -2714.7862    479.74963    11988.849 
   22100    300.54216    209.99533   -3166.5109   -2719.4772     834.3136    11979.376 
   22150    301.55932    210.07574   -3169.1913   -2720.6446    928.15378    11970.121 
   22200    313.12995    210.48023   -3182.6742   -2716.9171    642.83875    11961.121 
   22250    305.51703    210.27287   -3175.7623   -2721.3289    981.18316    11952.274 
   22300    310.34524    210.42672   -3180.8906   -2719.2756    997.65802    11943.717 
   22350    312.96899    210.43017   -3181.0057   -2715.4881    1032.6816     11935.47 
   22400    312.76054    210.46482   -3182.1607   -2716.9531    1104.8996    11927.535 
   22450    313.67078    210.55082   -3185.0274   -2718.4659    1166.2546    11919.961 
   22500    303.24183    210.29855   -3176.6183    -2725.569    1507.3027    11912.797 
   22550    293.49141     209.9989   -3166.6298   -2730.0836     1844.642    11906.191 
   22600    298.49512    210.14281   -3171.4269   -2727.4381    1726.0176    11900.305 
   22650    311.62112    210.64106   -3188.0352   -2724.5224    1366.1682    11895.077 
   22700    315.61627     210.7493   -3191.6434   -2722.1881    1262.8009    11890.345 
   22750    320.61955    210.91571   -3197.1904   -2720.2932    1206.5712    11886.029 
   22800    314.28386    210.82369   -3194.1229   -2726.6495    1394.6841    11882.102 
   22850    306.81334    210.63019   -3187.6731   -2731.3115    1570.3116    11878.645 
   22900    301.31878     210.4711   -3182.3699    -2734.181    1743.6087    11875.749 
   22950     295.9042    210.34133   -3178.0443   -2737.9092    1924.2243    11873.527 
   23000    300.59994      210.508      -3183.6   -2736.4803    1765.4099    11872.031 
   23050    303.10584    210.63761   -3187.9205   -2737.0735    1632.8255    11871.195 
   23100    311.60322    210.89364   -3196.4547   -2732.9685    1365.7835    11870.924 
   23150    303.13146    210.68155   -3189.3851      -2738.5    1532.2164    11871.109 
   23200    305.18881    210.73681   -3191.2271   -2737.2818    1493.5745    11871.804 
   23250    301.10701    210.63518   -3187.8394   -2739.9656    1534.6117    11873.007 
   23300    298.87098    210.56002    -3185.334   -2740.7861    1585.0075    11874.728 
   23350    301.81645    210.68969   -3189.6564   -2740.7273    1375.1806     11876.99 
   23400     309.2736    210.89417   -3196.4724   -2736.4514    1047.3877    11879.681 
   23450    301.28134    210.74115   -3191.3717   -2743.2386    1273.1057     11882.65 
   23500    304.96977    210.86762   -3195.5872   -2741.9678    1157.5603     11885.97 
   23550    287.07627    210.35311    -3178.437   -2751.4328    1566.6151     11889.64 
   23600    286.40301    210.32796   -3177.5988   -2751.5961    1597.3069    11893.825 
   23650    297.60163    210.70843    -3190.281   -2747.6212    1124.5441    11898.529 
   23700    303.84152    210.94486   -3198.1621   -2746.2209    773.54293    11903.511 
   23750    309.42069    211.12919   -3204.3064   -2744.0666    487.49527    11908.605 
   23800    301.44644    210.87681   -3195.8938    -2747.515    626.36243    11913.668 
   23850    296.55106    210.64226   -3188.0754   -2746.9781    768.50567    11918.739 
   23900    292.93223    210.60891   -3186.9635   -2751.2491     815.4269    11923.899 
   23950    291.80843    210.58111   -3186.0371   -2751.9941    716.05986    11929.183 
   24000    284.17796    210.33987   -3177.9955   -2755.3024    841.52754    11934.564 
   24050    282.42749    215.15315   -3171.7717   -2751.6822    878.29083    11940.089 
   24100     287.5021    215.47398   -3182.4659   -2754.8283    575.82099    11945.767 
   24150    290.74657    215.54868   -3184.9562   -2752.4927    451.03449    11951.464 
   24200    280.58393    215.35774   -3178.5914   -2761.2441     666.4215    11957.136 
   24250    290.53696     215.7142   -3190.4732   -2758.3215    305.67383    11962.825 
   24300    279.88202    215.30537   -3176.8458   -2760.5425    582.15185    11968.432 
   24350    278.50313    215.23085   -3174.3617   -2760.1094    590.49902    11974.052 
   24400    296.76459    215.88103   -3196.0344   -2754.6196   -67.837745    11979.665 
   24450    286.89658    215.44151   -3181.3837   -2754.6468    193.15435    11985.007 
   24500    279.76675    215.12524   -3170.8414   -2754.7095    448.92218    11990.153 
   24550     283.8079      215.282   -3176.0667    -2753.924    274.64349    11995.243 
   24600    294.23412    215.62422   -3187.4739   -2749.8229   -38.453537    12000.182 
   24650    287.05268    215.34948   -3178.3161    -2751.347    159.08101     12004.84 
   24700    285.39695    215.33293   -3177.7643    -2753.258    166.89508    12009.288 
   24750    284.05646    215.22562   -3174.1874    -2751.675    145.18561    12013.552 
   24800    291.15006    215.47979   -3182.6597    -2749.596    -61.70496    12017.581 
   24850    276.73987    214.99687   -3166.5622   -2754.9327    338.27075    12021.338 
   24900    282.29635    215.00755   -3166.9184   -2747.0239    141.20836    12024.962 
   24950    291.87507    215.37197   -3179.0657   -2744.9236    -239.5087    12028.376 
   25000    279.36177    214.95484   -3165.1614   -2749.6319    35.106135    12031.433 
   25050    285.68326    220.13453   -3171.1509   -2746.2187   -120.75566    12034.213 
   25100    293.84145    220.31811   -3177.2703   -2740.2034   -271.37464    12036.688 
   25150    269.65258     219.5481   -3151.6034   -2750.5156      426.458    12038.809 
   25200    282.83428    219.88014   -3162.6714   -2741.9769    10.303363    12040.861 
   25250    291.22374    220.19732   -3173.2439   -2740.0707   -264.27507    12042.694 
   25300     277.7845    219.68633   -3156.2112   -2743.0278    220.05392    12044.185 
   25350    300.37165    220.33425   -3177.8083   -2731.0283   -436.14007    12045.497 
   25400    300.34599     220.2352   -3174.5065   -2727.7646   -363.80298    12046.366 
   25450     288.9789    219.85175   -3161.7251   -2731.8909    85.614175    12046.809 
   25500    277.63111    219.45186   -3148.3953   -2735.4401     406.1771    12047.068 
   25550    278.87688    219.40047   -3146.6822   -2731.8739    454.52318    12047.295 
   25600     292.4138    219.74155   -3158.0517   -2723.1084    198.25761    12047.517 
   25650     295.7312    219.76571   -3158.8569   -2718.9792    167.87773    12047.631 
   25700    300.42186     219.9802   -3166.0066   -2719.1518   -12.850028    12047.583 
   25750    293.74457    219.71723   -3157.2408    -2720.318    193.90931    12047.309 
   25800    298.78173     219.8144     -3160.48   -2716.0648    170.15458    12046.882 
   25850    293.31651    219.54073   -3151.3576   -2715.0716    376.09138    12046.347 
   25900    313.17801    220.11798   -3170.5992   -2704.7706   -123.46178    12045.719 
   25950     286.9226    219.36281   -3145.4271   -2718.6515    582.02888    12044.866 
   26000     294.4918    219.58201   -3152.7338   -2714.6996    476.35842    12044.046 
   26050    293.36039     219.5379   -3151.2635   -2714.9121    566.77148     12043.27 
   26100    296.96955     219.6786   -3155.9533   -2714.2336     463.4926    12042.543 
   26150    288.93272    219.35787   -3145.2625   -2715.4969    617.61652    12041.857 
   26200    302.01239    219.78278    -3159.426   -2710.2054    286.56945    12041.248 
   26250    298.54579    219.60519   -3153.5064   -2709.4422    555.59263    12040.605 
   26300    307.65333    219.83242   -3161.0805   -2703.4695    420.54141    12039.989 
   26350    296.66382    219.42458   -3147.4859    -2706.221    758.55017    12039.398 
   26400    306.87617    219.80153   -3160.0512   -2703.5961    495.71325    12038.938 
   26450    309.70763    219.89116   -3163.0388   -2702.3721    361.59216    12038.517 
   26500    318.01753    220.10359   -3170.1197   -2697.0927    68.391471    12038.014 
   26550    302.35831    219.62541   -3154.1803   -2704.4452    487.06725    12037.342 
   26600     287.1193    219.17877   -3139.2923   -2712.2241    953.87232    12036.694 
   26650    289.27529    219.22323   -3140.7742   -2710.4991    875.42511    12036.313 
   26700    302.56169     219.6299   -3154.3299   -2704.2923    492.66863    12036.141 
   26750    303.61621    219.65705   -3155.2349   -2703.6288    470.23308    12036.005 
   26800    298.80775    219.43846   -3147.9486   -2703.4947    619.88702    12035.881 
   26850    300.90538    219.61524   -3153.8414   -2706.2674    582.22676    12035.829 
   26900    294.32232    219.37033   -3145.6776   -2707.8954     808.0783    12035.876 
   26950    303.55505    219.57022   -3152.3407   -2700.8256    633.08935    12036.087 
   27000    303.41027     219.6103   -3153.6766   -2702.3768    547.09294    12036.406 
   27050    297.36521    224.53253   -3151.0842    -2708.776    584.05185    12036.782 
   27100    299.33955     224.5291     -3150.97   -2705.7251    578.28414    12037.235 
   27150    299.22787    224.51105   -3150.3682   -2705.2894     639.5328    12037.761 
   27200    295.88144    224.33396   -3144.4652    -2704.364    832.13631    12038.398 
   27250    302.48955    224.58695   -3152.8984   -2702.9681    665.23003    12039.238 
   27300    295.82985    224.36145   -3145.3817   -2705.3572    812.60148    12040.223 
   27350    296.02061    224.36436   -3145.4788   -2705.1705     743.8269    12041.369 
   27400    297.65251    224.35966   -3145.3219   -2702.5863    696.50837     12042.67 
   27450    302.42411    224.55786   -3151.9286   -2702.0957    539.87646    12044.106 
   27500    304.18179    224.65112   -3155.0373   -2702.5899    562.36857    12045.589 
   27550     291.3561    224.12439   -3137.4797   -2704.1096    1014.4557    12047.156 
   27600     308.3658    224.69095    -3156.365   -2697.6943    442.26565    12048.963 
   27650     303.1243    224.56211   -3152.0703   -2701.1959    555.12888    12050.796 
   27700    288.66573    224.02447   -3134.1491   -2704.7807    1063.9604    12052.695 
   27750    301.40959    224.43644   -3147.8814   -2699.5575    666.66716    12054.858 
   27800    303.06812    224.43037   -3147.6792   -2696.8883    571.89311    12057.149 
   27850    301.52005    224.43599   -3147.8665   -2699.3782    567.17742    12059.493 
   27900    292.83561    224.14054    -3138.018   -2702.4472    884.66967    12061.894 
   27950    291.95936     224.0617   -3135.3899   -2701.1224    901.28973    12064.487 
   28000    297.58729    224.22143   -3140.7144   -2698.0759    677.23372    12067.301 
   28050    298.59914    224.18657   -3139.5523   -2695.4087    640.46624    12070.223 
   28100    300.35824    224.20354    -3140.118   -2693.3579    534.59244    12073.215 
   28150    304.77722    224.40763   -3146.9209   -2693.5879    309.70245    12076.225 
   28200    298.39451    224.17984    -3139.328   -2695.4888    452.84797    12079.155 
   28250    291.93467    223.95399   -3131.7997    -2697.569    617.34038    12082.054 
   28300    292.33291    223.91967   -3130.6556   -2695.8326    663.12484    12085.025 
   28350    306.19384    224.41484   -3147.1613   -2691.7212    262.97889    12088.056 
   28400    301.34763    224.21081   -3140.3605   -2692.1287    300.47484    12090.989 
   28450    304.61602     224.2895   -3142.9833     -2689.89    126.89983    12093.818 
   28500    300.99132     224.0981   -3136.6033   -2688.9015    298.24254     12096.47 
   28550    289.74749    223.70149    -3123.383   -2692.4056    707.21381    12099.037 
   28600    297.85812    224.02182   -3134.0608   -2691.0194    405.62193    12101.687 
   28650    286.93972    223.61685   -3120.5616   -2693.7605    737.34973    12104.321 
   28700    297.43768    223.96634   -3132.2112   -2689.7952    426.80792    12107.058 
   28750    310.41084     224.3404   -3144.6799   -2682.9673    93.658108    12109.766 
   28800    303.50469    224.10307    -3136.769   -2685.3288    320.86324    12112.285 
   28850    293.02452    223.75165   -3125.0551   -2689.2033     609.2349    12114.729 
   28900    302.49159    223.93673   -3131.2244   -2681.2911    346.60391    12117.204 
   28950    287.71672    223.44443   -3114.8143   -2686.8575    701.39877    12119.641 
   29000     304.2788    223.96156    -3132.052   -2679.4603    252.71684    12122.147 
   29050    309.70484    229.08515   -3136.1716   -2675.5091    156.42237    12124.563 
   29100      296.661    228.72311   -3124.1038   -2682.8431    525.50764    12126.836 
   29150    303.17858    228.88069   -3129.3563   -2678.4012    353.32401    12129.113 
   29200    294.40092    228.51292   -3117.0973   -2679.1982    645.13261    12131.363 
   29250    297.69141    228.54727   -3118.2423   -2675.4489    551.19044    12133.694 
   29300    310.37527    228.91846   -3130.6154   -2668.9557    205.59494    12136.066 
   29350     291.5857    228.33824   -3111.2747   -2677.5631    776.53373    12138.348 
   29400    291.94865    228.29962   -3109.9875    -2675.736    777.30276     12140.78 
   29450    306.61012    228.74326   -3124.7753    -2668.716    389.74867    12143.373 
   29500    292.23873    228.31836    -3110.612    -2675.929    901.00171     12145.97 
   29550    285.32909    228.01854    -3100.618   -2676.2126    1177.5007      12148.8 
   29600    292.79254    228.16004   -3105.3346   -2669.8279    984.58479        12152 
   29650    302.55365    228.44424    -3114.808   -2664.7824    621.64227     12155.47 
   29700    315.85996    228.79611   -3126.5371   -2656.7194    156.15304    12159.003 
   29750    313.83154    228.74289   -3124.7629   -2657.9623      160.391    12162.384 
   29800    306.89379     228.4355   -3114.5167   -2658.0354    325.36721    12165.614 
   29850    303.11948    228.30878   -3110.2928   -2659.4255    408.49545    12168.751 
   29900     306.6929    228.31151   -3110.3836   -2654.2011      427.591    12171.843 
   29950    303.49022    228.25875   -3108.6251   -2657.2064    490.22768     12174.91 
   30000    301.80293    228.21623   -3107.2078   -2658.2988    502.37878    12177.969 
   30050    296.96596    227.94993   -3098.3311   -2656.6167    622.47347     12181.05 
   30100    307.04675    228.26914   -3108.9714   -2652.2627    341.94154    12184.188 
   30150    309.89226    228.29589   -3109.8628   -2648.9216    282.67247    12187.274 
   30200    307.76994    228.20795   -3106.9316   -2649.1471    312.99245    12190.253 
   30250    313.90668     228.4383     -3114.61   -2647.6976    143.82222    12193.129 
   30300    301.49885    227.91952   -3097.3172   -2648.8605    538.70436    12195.872 
   30350    319.78197    228.49549   -3116.5163   -2640.8649    1.5525692    12198.577 
   30400    304.90644    228.01595   -3100.5316   -2647.0064    390.24659    12201.084 
   30450    303.95967    227.95686   -3098.5619   -2646.4449    446.88343    12203.533 
   30500    323.11032    228.56107   -3118.7022   -2638.1001   -124.07872    12205.938 
   30550     303.8245     227.8481   -3094.9368   -2643.0208    432.05434     12208.09 
   30600    317.54161    228.38772   -3112.9241    -2640.605   -93.052735    12210.154 
   30650    323.67697    228.54274   -3118.0913   -2636.6463    -337.9642    12211.926 
   30700     300.3518    227.77286   -3092.4287   -2645.6782    377.94175    12213.319 
   30750    300.61208    227.82012   -3094.0039   -2646.8662    484.60167    12214.644 
   30800    297.06279     227.6871     -3089.57   -2647.7116    653.46063    12216.013 
   30850    314.52591    228.28609   -3109.5362   -2641.7027    73.354811    12217.461 
   30900    312.69145    228.24822   -3108.2741   -2643.1692    138.89129    12218.742 
   30950    299.52874    227.74537   -3091.5125   -2645.9862    563.70484    12219.878 
   31000    318.11961    228.40323   -3113.4408    -2640.262   -116.58961    12221.016 
   31050    307.37289    233.04423   -3101.4743   -2644.2804    57.757174    12221.915 
   31100    299.22104    232.71374    -3090.458   -2645.3894    357.45097    12222.625 
   31150    304.60843    232.85243   -3095.0809    -2641.999    234.77352    12223.289 
   31200    302.31146     232.8396   -3094.6534   -2644.9881    256.65287    12223.896 
   31250    306.73037    233.02423   -3100.8076   -2644.5694    141.38129    12224.427 
   31300     309.3174    233.07563    -3102.521   -2642.4348    24.346078    12224.824 
   31350    313.60596    233.26655    -3108.885   -2642.4199   -183.51197    12225.013 
   31400    292.87123    232.43403   -3081.1343   -2645.5105    488.94949     12224.95 
   31450    301.71033    232.69937   -3089.9791   -2641.2078    271.43932    12224.888 
   31500    304.36705    232.90488   -3096.8295   -2644.1066    159.50647    12224.782 
   31550    306.86892    233.00702   -3100.2339   -2643.7896    65.680473    12224.549 
   31600    305.44123    233.11996   -3103.9986    -2649.678    81.655335    12224.162 
   31650    302.87433    233.08709    -3102.903   -2652.4004    206.75693    12223.638 
   31700    301.71953     233.0837     -3102.79   -2654.0051    258.07786    12223.022 
   31750    287.11883    232.54693   -3084.8976   -2657.8301    625.89239    12222.374 
   31800    296.81207    232.79407   -3093.1356   -2651.6502    399.76355    12221.834 
   31850    290.62381    232.59697   -3086.5656   -2654.2847    661.11583    12221.346 
   31900    304.09289    233.10296   -3103.4319   -2651.1168    211.57387    12220.976 
   31950    309.17777     233.2763   -3109.2101   -2649.3316    23.199145     12220.53 
   32000    295.64572    232.77705   -3092.5683   -2652.8177    421.83086    12219.939 
   32050    297.02255    237.70024   -3090.0079   -2648.2093    327.75113    12219.365 
   32100    300.22344    237.97936    -3099.312   -2652.7524    169.08629     12218.78 
   32150    294.70561    237.76015    -3092.005   -2653.6527     421.1179    12218.133 
   32200    281.91023    237.32938   -3077.6459   -2658.3258    732.05345     12217.56 
   32250    303.02566    238.06743   -3102.2478   -2651.5201    26.266763    12217.143 
   32300    296.61366    237.83192   -3094.3975   -2653.2071    276.51462    12216.615 
   32350    294.65481    237.71378   -3090.4593   -2652.1826    447.49488    12216.052 
   32400     310.6875    238.30318    -3110.106   -2647.9819   -79.070215     12215.51 
   32450    297.99926    237.95557    -3098.519   -2655.2677    286.23834    12214.808 
   32500     289.2573    237.68058   -3089.3527   -2659.1043    669.46913    12214.078 
   32550    303.03161    238.22073   -3107.3577   -2656.6211    256.27638    12213.489 
   32600    312.66689    238.48132   -3116.0439   -2650.9756   -150.69317    12212.868 
   32650     305.3242    238.19715   -3106.5717    -2652.425    3.5616512    12212.006 
   32700    296.23733    237.90325    -3096.775   -2656.1444     294.1769    12210.964 
   32750    293.45942    237.74109   -3091.3695   -2654.8709    474.65807    12209.901 
   32800    280.90148    237.37756   -3079.2521   -2661.4325    842.01348    12208.942 
   32850    293.19182    237.83861   -3094.6204   -2658.5198    501.51982    12208.211 
   32900    280.81524    237.39824   -3079.9412   -2662.2499     885.2241    12207.642 
   32950    306.70413    238.19471   -3106.4904   -2650.2912    191.65734    12207.301 
   33000    286.82917    237.44847   -3081.6155   -2654.9789    891.04389    12206.958 
   33050    282.08557    242.31595   -3077.1984   -2657.6175    939.14468    12206.893 
   33100    299.52104    242.89014    -3096.338   -2650.8231    266.76075    12207.144 
   33150    295.48713    242.83982   -3094.6608   -2655.1461     374.4739    12207.395 
   33200    284.39758    242.56258   -3085.4193   -2662.3995    744.07644    12207.697 
   33250    302.50923    243.12135   -3104.0452   -2654.0856    217.32342    12208.196 
   33300    302.87555    243.15429   -3105.1431   -2654.6387    154.62724    12208.672 
   33350    295.07096     242.8183   -3093.9435   -2655.0478    364.27845    12209.076 
   33400    306.80197    243.23602   -3107.8675   -2651.5228    -61.94994    12209.476 
   33450    297.52808    242.93518   -3097.8393   -2655.2888    195.83598    12209.715 
   33500    285.23227     242.5417   -3084.7233   -2660.4619    565.21137     12209.89 
   33550    296.18023    242.79663    -3093.221   -2652.6753    349.52056    12210.164 
   33600    296.68458    242.79632   -3093.2107   -2651.9148    343.49198    12210.477 
   33650     296.6878    242.80179   -3093.3929   -2652.0923     352.3005    12210.793 
   33700    297.85729    242.86921   -3095.6404   -2652.6003    344.38219    12211.126 
   33750    300.24686    242.99278   -3099.7593   -2653.1648    245.29819    12211.467 
   33800    288.93997    242.57084   -3085.6945   -2655.9182    654.67058    12211.808 
   33850    285.50929    242.45178    -3081.726   -2657.0525    796.60788    12212.338 
   33900    294.11358     242.7493   -3091.6435   -2654.1718    485.17534    12213.107 
   33950    291.30611    242.61071   -3087.0237    -2653.728    606.63753    12213.983 
   34000    296.32107    242.76168   -3092.0559   -2651.3007    470.96713    12214.989 
   34050    307.38615    238.20574   -3106.8581   -2649.6445    30.243809    12216.055 
   34100     308.5501    238.21746   -3107.2486   -2648.3037   -84.101899    12216.964 
   34150    301.35432    237.89964   -3096.6547    -2648.413    229.00795    12217.646 
   34200    305.18035     238.0362   -3101.2068   -2647.2742     240.8655    12218.242 
   34250    310.09029    238.18459   -3106.1531   -2644.9173     156.0248    12218.767 
   34300    291.02636     237.4232   -3080.7734   -2647.8937    838.50398    12219.231 
   34350    288.19554    237.25504   -3075.1681   -2646.4991    908.33474    12219.945 
   34400    310.23595    238.03924   -3101.3081   -2639.8557    91.236098    12220.908 
   34450    302.54557    237.81254   -3093.7512   -2643.7376    317.96919    12221.785 
   34500    297.55999    237.69461   -3089.8204   -2647.2225    518.13611    12222.641 
   34550    299.07763    237.71553   -3090.5178   -2645.6625    526.91452    12223.575 
   34600      293.262    237.46517   -3082.1723   -2645.9673    672.10654    12224.622 
   34650    303.36031    237.76047   -3092.0158   -2640.7903    207.08054    12225.826 
   34700    304.07517    237.89746   -3096.5822   -2644.2934    25.798938     12226.96 
   34750    309.94681    238.15908   -3105.3025   -2644.2801   -152.98923    12227.895 
   34800    298.31259    237.73938   -3091.3126   -2647.5952    297.82069    12228.589 
   34850    295.77935    237.65001   -3088.3337   -2648.3844     422.7728    12229.235 
   34900    302.88826    237.87318   -3095.7726   -2645.2493    193.81866    12229.907 
   34950    299.57773    237.69242   -3089.7472   -2644.1481    334.42151    12230.528 
   35000     304.9713    237.81156   -3093.7187    -2640.097    152.95184     12231.12 
   35050    303.59299    232.77976   -3092.6586    -2641.087    108.17829    12231.597 
   35100    298.98812    232.69212   -3089.7372    -2645.015    210.99896    12231.926 
   35150    293.67854    232.46178   -3082.0594   -2645.2349    388.34677    12232.178 
   35200    304.36624    232.83538   -3094.5127    -2641.791   -8.2719105    12232.407 
   35250    306.64012    232.93391   -3097.7969   -2641.6929   -84.759422    12232.441 
   35300    301.48727    232.78015   -3092.6717   -2644.2322    202.85322    12232.244 
   35350     298.9489    232.59877   -3086.6257   -2641.9618    359.80851    12231.961 
   35400    307.73853    232.91994   -3097.3315   -2639.5937    103.38917    12231.654 
   35450    301.63422    232.70251   -3090.0836   -2641.4256    303.38647    12231.232 
   35500    305.75473    232.87514   -3095.8381   -2641.0511    229.36382     12230.75 
   35550    303.02682    232.73628   -3091.2094     -2640.48     312.9306      12230.2 
   35600    308.25457    232.94088   -3098.0294   -2639.5241    177.13327    12229.604 
   35650    310.27969     233.0598   -3101.9934   -2640.4759    91.361369      12228.9 
   35700    314.76247    233.15549   -3105.1831   -2636.9978    -9.021459    12228.037 
   35750    309.23255    232.86744   -3095.5814   -2635.6214    278.86558    12226.974 
   35800    305.25352    232.80845    -3093.615   -2639.5735    390.18281     12225.84 
   35850    307.38089    232.92301   -3097.4338    -2640.228    271.92171    12224.706 
   35900    310.93559    233.07323   -3102.4408   -2639.9477    148.35873    12223.516 
   35950    304.99543    232.92425   -3097.4751   -2643.8175    327.42141     12222.23 
   36000    303.87803      232.869   -3095.6333   -2643.6378    425.92863    12220.905 
   36050    298.26311    232.72643   -3090.8809   -2647.2371    583.78253    12219.611 
   36100     303.9244    232.93535   -3097.8449   -2645.7804    259.81767    12218.419 
   36150    314.49288    233.35708   -3111.9025   -2644.1182   -84.603746    12217.177 
   36200    297.75342    232.82307   -3094.1022   -2651.2166    511.20635    12215.736 
   36250    303.58704    233.02511   -3100.8369   -2649.2742    373.79272     12214.32 
   36300    303.90035    233.01037   -3100.3455   -2648.3168    360.23117    12212.928 
   36350    291.49113    232.62375   -3087.4582   -2653.8872    691.93524    12211.544 
   36400    315.78739    233.41917   -3113.9722   -2644.2624   -86.957396    12210.271 
   36450    305.97131    233.18008   -3106.0028   -2650.8937    151.53067    12208.812 
   36500    285.14338    232.51547   -3083.8491   -2659.7199    808.16048    12207.265 
   36550     287.5724    232.64045   -3088.0149   -2660.2728    641.19283    12205.921 
   36600    297.58848    233.07947    -3102.649   -2660.0087    200.10449    12204.704 
   36650    313.47759    233.63631   -3121.2105   -2654.9363   -192.72798      12203.4 
   36700     293.3932    232.94317   -3098.1056   -2661.7054    533.36893    12201.862 
   36750    289.59545    232.87366   -3095.7886   -2665.0373    596.04344    12200.366 
   36800     294.5139    233.05914   -3101.9712   -2663.9041    370.43667    12198.984 
   36850    302.72537    233.31707   -3110.5689   -2660.2878    77.695477    12197.608 
   36900     297.5113    233.11108   -3103.7026    -2661.177    156.84187    12196.101 
   36950    293.33449    233.17405   -3105.8016   -2669.4888    158.07654     12194.47 
   37000    292.13786     233.1819   -3106.0632   -2671.5303    211.84972    12192.739 
   37050     294.1317    238.25465   -3108.4884   -2670.9898    223.59054     12190.95 
   37100    295.16408    238.32139   -3110.7131   -2671.6789    238.94815    12189.105 
   37150    294.46186    238.30614   -3110.2048   -2672.2151    290.02644    12187.207 
   37200    284.01171    238.00305   -3100.1016   -2677.6557    544.64368    12185.307 
   37250    290.28821    238.25077    -3108.359   -2676.5773    273.01715    12183.487 
   37300    289.91598    238.32497   -3110.8325   -2679.6044     192.3033    12181.654 
   37350    298.40881    238.63385   -3121.1285    -2677.268   -103.99127    12179.736 
   37400    288.36548    238.29662   -3109.8873   -2680.9655    190.13808    12177.623 
   37450    292.73886    238.48027    -3116.009   -2680.5821    67.802978    12175.397 
   37500     279.8818    238.06668   -3102.2226   -2685.9196    466.26783    12173.071 
   37550     283.7071    238.16131    -3105.377   -2683.3842    438.09806    12170.796 
   37600    286.28577     238.3121   -3110.4033   -2684.5749     367.4009    12168.586 
   37650    292.65721    238.61961   -3120.6537   -2685.3483    147.17583    12166.381 
   37700    277.55772     238.0924   -3103.0799   -2690.2338    601.77155    12164.127 
   37750     272.6109    237.95238   -3098.4127   -2692.9247    740.66306    12162.008 
   37800    274.79036    238.03272   -3101.0906   -2692.3608    631.34811    12160.112 
   37850    279.21257    238.23995   -3107.9984   -2692.6908    472.34173    12158.392 
   37900     292.2207    238.65839   -3121.9465   -2687.2903    131.74798     12156.74 
   37950    284.90525     238.3857   -3112.8568   -2689.0818    377.63134    12155.031 
   38000    286.27228    238.51337   -3117.1122   -2691.3039    297.39765    12153.329 
   38050    280.51525    233.35487    -3111.829   -2694.5838    430.06589    12151.617 
   38100    285.27007    233.41217   -3113.7391   -2689.4215    304.07961    12149.941 
   38150    298.00411      233.859   -3128.6333   -2685.3748   -93.822148    12148.222 
   38200    302.70848    233.93143   -3131.0478   -2680.7919   -149.08193    12146.275 
   38250    298.56628    233.83038   -3127.6793   -2683.5846    122.76923    12144.069 
   38300    279.87368    233.26639   -3108.8798   -2692.5889    752.05609    12141.767 
   38350    297.60496    233.95323   -3131.7742   -2689.1094    186.81548    12139.613 
   38400    287.08731    233.45552   -3115.1838   -2688.1632    570.63722     12137.43 
   38450    276.86082    233.12417    -3104.139   -2692.3295    920.27688    12135.366 
   38500    293.67507    233.68334    -3122.778   -2685.9586     331.3443     12133.57 
   38550    300.34645    233.95115    -3131.705   -2684.9624    54.282606    12131.784 
   38600    296.30545    233.79339   -3126.4464   -2685.7145    243.14617     12129.86 
   38650    301.45898    233.87087    -3129.029   -2680.6316    199.48122    12127.852 
   38700     281.3949    233.11803   -3103.9345   -2685.3809    898.41633    12125.804 
   38750    286.72419    233.28302   -3109.4339   -2682.9534    825.51061    12124.008 
   38800    309.56842    234.03887   -3134.6289   -2674.1694    225.38421     12122.44 
   38850    295.40071    233.56126   -3118.7087   -2679.3226    736.67951     12120.86 
   38900    309.61466    233.96167   -3132.0557   -2671.5274    364.79682    12119.425 
   38950    298.08269     233.5269   -3117.5632   -2674.1878    734.44018    12118.027 
   39000    294.83648    233.32088    -3110.696   -2672.1491    956.08782     12116.82 
   39050    301.27794    233.54412   -3118.1373   -2670.0092    793.77046    12115.909 
   39100    301.23154     233.4613   -3115.3767   -2667.3177    944.63689    12115.242 
   39150    305.15232    233.61082   -3120.3605   -2666.4696    918.87587    12114.871 
   39200    297.11141    233.26529   -3108.8429   -2666.9122    1186.9065    12114.812 
   39250    295.15995    233.09805   -3103.2684   -2664.2403    1291.6972    12115.191 
   39300    290.36533    232.85827   -3095.2758   -2663.3794    1423.2421    12116.087 
   39350    314.45437    233.54413   -3118.1376   -2650.4106    758.44319    12117.499 
   39400    315.03204    233.55477   -3118.4924   -2649.9061    798.69866    12119.154 
   39450    303.24215    233.07345   -3102.4484   -2651.3987     1219.041    12121.042 
   39500    312.99246    233.33105   -3111.0349   -2645.4824    1018.7236    12123.338 
   39550    305.88723    233.05753   -3101.9176   -2646.9335    1176.7359    12126.004 
   39600    317.91203    233.38111   -3112.7035   -2639.8335    886.91316    12129.061 
   39650    319.03954    233.38525   -3112.8417   -2638.2946    857.84462    12132.413 
   39700    323.50254    233.51894   -3117.2981   -2636.1126    718.32754    12135.998 
   39750    305.55888     232.8945   -3096.4833   -2641.9876    1284.0659    12139.785 
   39800    315.03716    233.16839    -3105.613   -2637.0191    1101.6432    12144.009 
   39850    309.62214    232.88166   -3096.0552   -2635.5157     1269.292     12148.65 
   39900     301.7632    232.58783    -3086.261   -2637.4111    1393.1953    12153.761 
   39950    316.21657    233.14716   -3104.9053   -2634.5571    825.21155    12159.382 
   40000    308.07946    232.87597   -3095.8657   -2637.6209    997.03651    12165.291 
   40050    311.26537    227.97872   -3099.2907   -2636.3071    885.99856    12171.509 
   40100    302.31064    227.54691   -3084.8971    -2635.233    1152.1467     12178.02 
   40150    324.71574    228.28235   -3109.4116   -2626.4215    454.65277    12184.862 
   40200    326.44253    228.22084   -3107.3613   -2621.8027    302.78373    12191.752 
   40250    318.63786    228.07783   -3102.5943   -2628.6446    431.30659    12198.577 
   40300    298.98365    227.37594   -3079.1982   -2634.4826    957.54983    12205.434 
   40350    309.71618    227.72755   -3090.9185   -2630.2392    508.08187    12212.528 
   40400    308.90547    227.76294   -3092.0979   -2632.6244    365.98372    12219.706 
   40450    301.22441    227.46067   -3082.0225    -2633.974     556.4296    12226.882 
   40500    311.20096    227.76412   -3092.1374   -2629.2495    184.73376    12234.103 
   40550    310.30586    227.76698   -3092.2328   -2630.6764    91.434278    12241.217 
   40600    318.46572    228.08204   -3102.7348   -2629.0411   -191.55015    12248.128 
   40650    305.26754    227.48616   -3082.8721   -2628.8097     204.1689    12254.747 
   40700    300.48086    227.35767   -3078.5891   -2631.6466    279.06347    12261.245 
   40750    310.76035    227.70286   -3090.0953   -2627.8628   -151.63245    12267.653 
   40800    310.55578    227.64626   -3088.2086   -2626.2804    -257.1153    12273.776 
   40850    301.52759    227.48909   -3082.9698   -2634.4704   -151.45631    12279.535 
   40900    317.33873    228.03947   -3101.3156   -2629.2983   -601.25406    12284.936 
   40950    291.52319    227.15421   -3071.8071   -2638.1885    156.75337    12289.865 
   41000    294.29323    227.36176   -3078.7252   -2640.9863   -10.817268    12294.598 
   41050    304.31884     227.6549   -3088.4968   -2635.8456   -360.71983    12299.117 
   41100    320.67786    228.18366   -3106.1219   -2629.1379   -882.45681     12303.19 
   41150    311.35594    227.87997    -3095.999   -2632.8807   -624.37381    12306.587 
   41200    299.50542    227.49651   -3083.2169   -2637.7253   -302.46031    12309.426 
   41250    306.93279    227.72268   -3090.7558   -2634.2166   -451.94435    12311.838 
   41300    291.75822    227.21926   -3073.9752   -2640.0069    -48.22727    12313.825 
   41350    311.04117    227.91698   -3097.2328   -2634.5826    -712.8448    12315.495 
   41400     306.7966    227.80717   -3093.5723   -2637.2356   -699.56788    12316.587 
   41450    304.22644    227.66082    -3088.694   -2636.1802   -664.10444     12317.06 
   41500    293.43019    227.32314   -3077.4381    -2640.983   -370.36785    12316.949 
   41550    303.71348    227.71722   -3090.5741   -2638.8233   -733.05918    12316.383 
   41600    311.61306    228.04831   -3101.6105   -2638.1097   -1027.5149    12315.197 
   41650    300.76409    227.71765   -3090.5882   -2643.2244   -708.25933    12313.257 
   41700    298.62319    227.64654   -3088.2179   -2644.0385   -643.38309     12310.69 
   41750    301.95063    227.70133   -3090.0444   -2640.9157   -646.42213    12307.543 
   41800    294.89343    227.56998    -3085.666   -2647.0343   -398.44835    12303.831 
   41850     300.2334    227.77896   -3092.6322   -2646.0577   -515.62886    12299.653 
   41900    306.74104    227.92197   -3097.3991   -2641.1451   -612.22286    12294.976 
   41950    306.15514    227.98726   -3099.5752   -2644.1926   -597.50268     12289.75 
   42000    308.38015    228.05873   -3101.9575   -2643.2654   -560.04084    12283.975 
   42050    308.69154    223.12547   -3104.1824   -2645.0271   -418.25393    12277.657 
   42100    304.41637    223.00441   -3100.1471   -2647.3508   -340.90567    12270.892 
   42150     322.7336    223.60959   -3120.3198    -2640.278   -874.21238    12263.674 
   42200    317.01597    223.44033   -3114.6778   -2643.1406   -632.53389    12255.786 
   42250    302.86446    223.06727   -3102.2424   -2651.7544   -169.31279    12247.326 
   42300    299.82547    223.04534   -3101.5114   -2655.5437   -8.1314659    12238.538 
   42350    298.84158    222.97723    -3099.241   -2654.7368    125.67502    12229.536 
   42400    309.55371    223.43598   -3114.5326   -2654.0949   -98.610393    12220.346 
   42450    306.16301    223.34917   -3111.6389   -2656.2446   -15.395605    12210.916 
   42500    315.13482    223.63986   -3121.3286   -2652.5894   -296.32419    12201.234 
   42550    317.35899    223.82527    -3127.509   -2655.4616   -232.58507    12191.171 
   42600    297.73649    223.14442    -3104.814   -2661.9536    462.67231    12180.809 
   42650    309.86178     223.6213   -3120.7099   -2659.8139    184.89599    12170.419 
   42700    294.99394    223.12931   -3104.3104   -2665.5292    667.96014     12159.98 
   42750      312.626    223.70544   -3123.5147   -2658.5073    328.02678     12149.64 
   42800    305.94104    223.58994   -3119.6645   -2664.6004    602.02916    12139.302 
   42850    302.60032    223.58791   -3119.5969   -2669.5018    746.19679    12129.069 
   42900      295.411    223.33804   -3111.2681   -2671.8666     952.5672    12119.051 
   42950    311.16965    223.90698   -3130.2325   -2667.3913    549.94478    12109.292 
   43000     308.6744    223.87134   -3129.0448    -2669.915    724.19914    12099.642 
   43050    311.12947    224.10967   -3136.9891   -2674.2076     638.9303    12090.159 
   43100    308.14218    223.98346   -3132.7821    -2674.444     739.8844    12080.827 
   43150    302.45186     223.8441   -3128.1368   -2678.2625    1003.5389    12071.672 
   43200    297.32875     223.7442   -3124.8065   -2682.5525    1245.6477    12062.863 
   43250    312.19433    224.27458   -3142.4859   -2678.1205    876.23295    12054.474 
   43300     322.5658    224.61108   -3153.7026   -2673.9104     595.1446    12046.349 
   43350    322.76268    224.70932   -3156.9774   -2676.8923    621.21857    12038.352 
   43400    302.93018    224.17024   -3139.0081   -2688.4224    1273.7112    12030.503 
   43450    315.83816    224.65696   -3155.2321   -2685.4468    927.84264    12023.061 
   43500    309.48132    224.35362   -3145.1206   -2684.7906    1170.1093    12015.941 
   43550    294.38559    223.88345   -3129.4483    -2691.572    1580.5589    12009.233 
   43600    315.02782    224.66746   -3155.5821   -2687.0021    975.39214    12003.087 
   43650    291.14981    223.83395   -3127.7984   -2694.7351    1784.9614    11997.347 
   43700      314.837    224.62327   -3154.1089   -2685.8127    1252.6712    11992.248 
   43750      300.008    224.19058    -3139.686   -2693.4469    1738.5812    11987.664 
   43800     298.9956    224.17242   -3139.0806   -2694.3473    1743.0662    11983.754 
   43850    321.94422    224.98225   -3166.0749   -2687.2073    973.50381    11980.505 
   43900    318.34247    224.93525   -3164.5083    -2690.998    1014.1071    11977.587 
   43950    307.03515    224.57894   -3152.6313   -2695.9398    1349.1336    11974.983 
   44000    311.56452    224.68798   -3156.2659   -2692.8373    1265.3456     11972.84 
[...]
   89400    315.67635    223.58744   -3119.5814   -2650.0367    429.93308    12131.172 
   89450    313.96106    223.62353   -3120.7842   -2653.7909    495.37913    12126.429 
   89500    317.84166    223.77687   -3125.8957   -2653.1303    456.38382    12121.692 
   89550    324.00281    223.97432   -3132.4772   -2650.5476    278.61298     12116.94 
   89600    303.66629     223.4269   -3114.2299   -2662.5493    903.03075    12112.111 
   89650    306.41826    223.43722   -3114.5739      -2658.8    977.13475    12107.484 
   89700    315.33038    223.64654   -3121.5514   -2652.5213    785.34105    12103.116 
   89750    319.81786    223.78553   -3126.1844   -2650.4796    650.87582    12098.899 
   89800    316.59565    223.69033   -3123.0109   -2652.0989    832.40739    12094.806 
   89850    319.42154    223.85369   -3128.4563   -2653.3409    803.61474    12090.885 
   89900    311.83031    223.63691   -3121.2303   -2657.4063    953.32258    12087.139 
   89950    313.04082    223.64282   -3121.4272   -2655.8027     885.7289    12083.625 
   90000    300.12569    223.39573   -3113.1909   -2666.7767    1147.2903    12080.378 
   90050     316.0189    223.92139   -3130.7129   -2660.6588    800.55853    12077.461 
   90100    308.05743    223.64715   -3121.5718   -2663.3597    1085.9391    12074.766 
   90150     310.6799    223.79641   -3126.5469   -2664.4341    977.47039    12072.386 
   90200    311.72715    223.83502    -3127.834   -2664.1634    980.01865    12070.293 
   90250    315.84764    223.92219   -3130.7398   -2660.9403    864.43112    12068.461 
   90300    313.32472    223.93594   -3131.1979   -2665.1511    861.48285    12066.848 
   90350    307.42379    223.69964   -3123.3215   -2666.0519    1110.9831    12065.473 
   90400     323.3122    224.35628   -3145.2095   -2664.3071    614.51798    12064.403 
   90450    312.58712    223.97888   -3132.6294   -2667.6797    894.56762    12063.467 
   90500    318.06255    224.11474    -3137.158    -2664.064    761.52026    12062.737 
   90550    314.95051    224.10047   -3136.6824   -2668.2174    749.98661    12062.201 
   90600    311.26387    224.10035   -3136.6784    -2673.697    855.40281    12061.812 
   90650     301.3553      223.746   -3124.8666   -2676.6235     1201.381    12061.664 
   90700    322.04118    224.45171   -3148.3903   -2669.3784    477.24048    12061.863 
   90750    308.31672     224.0324   -3134.4133   -2675.8156    788.86106    12062.131 
   90800    302.42242     223.8097   -3126.9901   -2677.1597    1091.1686    12062.592 
   90850    317.55236    224.27175   -3142.3918   -2670.0567    667.16714    12063.392 
   90900    322.71697    224.53591   -3151.1969   -2671.1799    467.41311    12064.307 
   90950    304.16973    224.03742   -3134.5807   -2682.1513    950.58879    12065.268 
   91000    307.00705    224.19528   -3139.8426   -2683.1929    765.38464    12066.491 
   91050     309.8474    224.31034   -3143.6779   -2682.8034    596.94451    12067.906 
   91100    282.38197    223.41439    -3113.813   -2693.7912    1299.9163    12069.466 
   91150    304.90137    224.22581   -3140.8604   -2687.3427    556.12527    12071.423 
   91200    305.01298    224.23652   -3141.2172   -2687.5335    454.34821    12073.518 
   91250    309.71959    224.30882   -3143.6272   -2682.9428    312.17924     12075.63 
   91300    310.25775    224.36518    -3145.506   -2684.0211    218.92902    12077.695 
   91350    299.14571    223.99327   -3133.1089   -2688.1524    521.33951    12079.674 
   91400    293.92517    223.92639   -3130.8795   -2693.6881    598.65608    12081.703 
   91450    300.84474    224.19491   -3139.8303   -2692.3465     305.8616     12083.82 
   91500    298.24358    224.16467   -3138.8222   -2695.2075    285.15303    12085.906 
   91550    299.56073     224.1571     -3138.57   -2692.9961    243.80244    12087.926 
   91600    302.38342    224.25015   -3141.6716   -2691.8992    136.28566    12089.857 
   91650    307.20382    224.42576   -3147.5252   -2690.5828   -10.225578    12091.636 
   91700    302.51888    224.22451    -3140.817   -2690.8431    155.34146    12093.218 
   91750    285.32879    223.75174   -3125.0579   -2700.6529     685.9349    12094.682 
   91800     283.6527    223.64277   -3121.4257   -2699.5138    734.81016    12096.265 
   91850    300.10254    224.26518   -3142.1725   -2695.7927    143.70505    12098.011 
   91900    297.88269     224.2018   -3140.0601   -2696.9822    87.483592     12099.65 
   91950    291.75035     224.0544   -3135.1467   -2701.1901    170.28875    12101.113 
   92000    289.92544     224.1077   -3136.9232   -2705.6811    183.90558    12102.455 
   92050    302.19975    229.43413   -3147.8045   -2698.3053    -143.4495    12103.668 
   92100    309.73256    229.73362   -3157.7874   -2697.0836   -481.42434    12104.591 
   92150    300.00766    229.44503   -3148.1676    -2701.929   -190.48596    12105.077 
   92200    296.13233    229.24945   -3141.6483   -2701.1739    3.8418891    12105.241 
   92250    299.27484    229.35551   -3145.1837   -2700.0351   -40.165652    12105.198 
   92300    287.76605    228.96194   -3132.0646   -2704.0344     336.8008    12104.944 
   92350    287.48659    228.95256   -3131.7521   -2704.1376    313.50503    12104.642 
   92400    282.87193    228.80916    -3126.972   -2706.2214    386.63289    12104.319 
   92450    282.56335    228.85699   -3128.5662   -2708.2746    384.14452    12103.993 
   92500    279.86686    228.77691    -3125.897   -2709.6163    554.15898    12103.702 
   92550    296.87919    229.36161    -3145.387   -2703.8017      117.438    12103.459 
   92600     295.9099    229.27354   -3142.4513   -2702.3078    124.92308    12103.092 
   92650    304.38016     229.5427   -3151.4234   -2698.6809   -197.14509    12102.555 
   92700    297.13368    229.30357   -3143.4525   -2701.4887   -7.1103199    12101.734 
   92750     285.0062    228.85448   -3128.4826   -2704.5575    387.41273    12100.704 
   92800    302.49248    229.52732   -3150.9105   -2700.9759   -161.19098    12099.618 
   92850    283.49543    228.80215   -3126.7384   -2705.0605    408.10342    12098.302 
   92900    297.14845    229.34579   -3144.8598    -2702.874    3.4482286    12096.921 
   92950    299.59311    229.39992   -3146.6641   -2701.0421   -77.108312    12095.351 
   93000    293.60591    229.20174   -3140.0579   -2703.3414    151.23212    12093.538 
   93050    303.27829    224.43485   -3147.8282   -2696.7247    -29.10735    12091.571 
   93100    297.62084    224.21555   -3140.5184     -2697.83    160.95653    12089.379 
   93150     294.1629    224.08913   -3136.3045   -2698.7594    358.42203    12087.025 
   93200    301.00026    224.26116   -3142.0385   -2694.3235      258.044    12084.615 
   93250    303.64369    224.33625   -3144.5418   -2692.8948    173.96467    12082.115 
   93300    300.10514    224.28413   -3142.8043   -2696.4207    258.10771     12079.47 
   93350    301.62862    224.34923   -3144.9745   -2696.3248    255.75568    12076.712 
   93400    300.78098    224.32711    -3144.237   -2696.8481    323.55612    12073.849 
   93450     295.8735    224.15703   -3138.5678   -2698.4783    452.07893     12070.94 
   93500    299.94368    224.11905   -3137.3018   -2691.1583    482.49165    12068.034 
   93550    300.96624    224.24281   -3141.4269   -2693.7624    458.72727    12065.132 
   93600    306.98348    224.48111   -3149.3702   -2692.7555    212.82393    12062.212 
   93650    307.20638    224.44326   -3148.1088   -2691.1626    259.28248    12059.182 
   93700    290.33903    223.74848   -3124.9492   -2693.0919    1036.2136    12056.086 
   93750    299.28992    224.14063    -3138.021   -2692.8499    922.84124    12053.235 
   93800    304.67256    224.30501   -3143.5005   -2690.3231    735.22229     12050.65 
   93850    304.92974    224.26578   -3142.1927   -2688.6328    729.11889    12048.216 
   93900    304.77296    224.28261   -3142.7536   -2689.4269    798.89686     12045.94 
   93950     302.7579    224.11716   -3137.2385   -2686.9091      978.127    12043.875 
   94000    308.42986    224.26552    -3142.184   -2683.4179    829.23423    12042.058 
   94050    309.64597    219.38193   -3146.0643   -2685.4894    793.74047    12040.438 
   94100    317.74718    219.59559   -3153.1862   -2680.5614    645.77964    12038.976 
   94150     319.2307    219.60048   -3153.3494   -2678.5179    666.60999    12037.617 
   94200    324.09536    219.75963   -3158.6544   -2676.5871    466.50278    12036.326 
   94250    306.05878    219.18858   -3139.6193     -2684.38    908.52663    12035.063 
   94300      303.317    219.03764   -3134.5881    -2683.427     1025.943    12034.006 
   94350    312.75945    219.26594   -3142.1981   -2676.9921    861.34752    12033.239 
   94400    318.41275    219.40457   -3146.8189   -2673.2041    828.57703    12032.684 
   94450    311.44129    219.19878   -3139.9593    -2676.714    962.79445    12032.316 
   94500    335.03746    219.76567   -3158.8556   -2660.5127    336.53911    12032.158 
   94550    319.12483    219.29707   -3143.2356   -2668.5616    808.87092    12031.995 
   94600    307.32515    218.87592   -3129.1972   -2672.0743    1262.2103    12031.986 
   94650    310.02962    218.96732    -3132.244   -2671.0984     1252.069    12032.382 
   94700    316.66649     219.2097   -3140.3234    -2669.306     992.8615    12033.196 
   94750    320.97662    219.29402   -3143.1339   -2665.7055    961.91653    12034.295 
   94800    321.38213    219.29249   -3143.0832   -2665.0516    1039.1439    12035.672 
   94850    333.20399    219.79542   -3159.8474   -2664.2317    641.79183    12037.317 
   94900    309.51183    219.06103   -3135.3677   -2674.9923     1302.285    12039.102 
   94950    306.18054    218.80891   -3126.9638   -2671.5434    1408.5844    12041.312 
   95000    325.71435     219.4276   -3147.5868   -2663.1114    731.24745        12044 
   95050    316.58578    224.09915   -3136.6382   -2665.7408    987.60689    12046.885 
   95100    311.67881    223.80871    -3126.957   -2663.3584     1186.541    12050.062 
   95150    319.59089    224.06498   -3135.4992    -2660.132    972.40862    12053.633 
   95200    311.50592    223.80293   -3126.7643   -2663.4228    1214.2696    12057.526 
   95250    320.90474    224.07447   -3135.8156   -2658.4942    1005.8444    12061.796 
   95300    290.57313    223.13804   -3104.6015    -2672.396     1789.364     12066.46 
   95350    326.90619    224.30092    -3143.364   -2657.1158    612.20039    12071.766 
   95400    328.16726    224.30539   -3143.5129    -2655.389     456.8311    12077.255 
   95450    304.14119    223.47385    -3115.795   -2663.4081    1174.3826    12082.802 
   95500     324.6209    224.18976   -3139.6587   -2656.8097    558.91221    12088.681 
   95550    303.60428    223.44446   -3114.8152   -2663.2268    1072.2171    12094.729 
   95600    306.39297    223.57653   -3119.2176   -2663.4813    811.43159    12101.118 
   95650     323.0287    224.19008   -3139.6692   -2659.1885    124.81991    12107.719 
   95700    319.98809    224.06155    -3135.385    -2659.427    122.72565    12114.218 
   95750    319.18743    223.99206   -3133.0686   -2658.3014    136.61803    12120.583 
   95800    304.34923     223.5072   -3116.9065   -2664.2101      565.081    12126.839 
   95850    297.59289    223.38039   -3112.6798   -2670.0329    688.83742     12133.19 
   95900    290.90036    223.16533    -3105.511   -2672.8188      742.257    12139.727 
   95950    306.48258    223.76149    -3125.383   -2669.5134    173.75005    12146.421 
   96000    311.91414    223.91188   -3130.3961   -2666.4474   -12.818502    12153.041 
   96050    303.65451    218.63846   -3121.2821    -2669.619     144.8179    12159.465 
   96100    308.18089    218.78253   -3126.0842   -2667.6885   -106.55953    12165.724 
   96150    310.65903    218.84693   -3128.2311   -2666.1494   -266.63556     12171.71 
   96200    308.73038    218.81752   -3127.2508   -2668.0378   -353.18956     12177.34 
   96250     313.4646    219.06716    -3135.572   -2669.3172   -681.50248    12182.537 
   96300    297.74769    218.66087   -3122.0292    -2679.152   -368.87523    12187.166 
   96350    298.54835     218.6894     -3122.98    -2678.912     -478.049    12191.346 
   96400    306.16727    218.93701   -3131.2337   -2675.8331   -724.71282    12195.027 
   96450    299.33841    218.72749   -3124.2497   -2679.0065   -566.92899    12198.101 
   96500    300.13595    218.85636   -3128.5452   -2682.1157   -744.69039    12200.611 
   96550    301.06856    218.93849   -3131.2829   -2683.4662    -869.9933    12202.484 
   96600    291.70876    218.64527   -3121.5091   -2687.6144    -585.0421    12203.668 
   96650    288.80554    218.61911   -3120.6371   -2691.0607   -484.27196    12204.279 
   96700    280.43342    218.36458   -3112.1527   -2695.0292   -277.82481    12204.405 
   96750    301.21511    219.12331   -3137.4436    -2689.409   -972.79442    12204.075 
   96800    303.86321    219.22199   -3140.7331   -2688.7596   -1145.8294    12203.003 
   96850    305.70765    219.29127   -3143.0424   -2688.3254   -1178.5062    12201.053 
   96900    302.36033    219.11277   -3137.0922   -2687.3541   -1014.6688     12198.21 
   96950       287.97    218.68304    -3122.768   -2694.4345   -622.97816    12194.571 
   97000      284.347    218.62765   -3120.9217   -2697.9771   -489.81748    12190.324 
   97050    275.61133    223.46311   -3115.4371   -2705.4861   -188.83007    12185.581 
   97100    277.40836    223.60402   -3120.1339     -2707.51   -212.32637    12180.486 
   97150    291.20288    224.09457   -3136.4857   -2703.3435   -685.91306     12175.02 
   97200    297.74734    224.29724   -3143.2414   -2700.3649   -889.16375     12168.94 
   97250    292.78907    224.17407   -3139.1356    -2703.634   -687.77171    12162.149 
   97300    285.69493    223.95799   -3131.9329   -2706.9834    -424.5998     12154.74 
   97350    293.80946     224.2418   -3141.3932   -2704.3739   -512.93397    12146.833 
   97400    295.14061    224.30704   -3143.5681   -2704.5688    -461.1627    12138.412 
   97450    296.15304    224.35268   -3145.0894   -2704.5842   -398.25823    12129.478 
   97500    292.46315    224.30297   -3143.4325   -2708.4157   -193.07203    12120.093 
   97550    285.26783    224.08316   -3136.1054   -2711.7911    160.73628    12110.351 
   97600    290.47073    224.23345   -3141.1151   -2709.0619     104.6541    12100.424 
   97650    304.50126    224.68719   -3156.2397   -2703.3171   -240.17762    12090.289 
   97700    299.56307    224.53523   -3151.1743    -2705.597    59.883984    12079.802 
   97750    298.12406    224.53876   -3151.2919    -2707.855    223.14042    12069.084 
   97800    289.50595    224.30457   -3143.4856   -2712.8674    519.64691    12058.252 
   97850    311.34231    225.03608   -3167.8693   -2704.7712       58.861    12047.405 
   97900    289.06316    224.39661   -3146.5538   -2716.5943      909.354    12036.411 
   97950    281.01111    224.07712   -3135.9041   -2717.9213    1286.6578    12025.626 
   98000    303.73886    224.87941   -3162.6471   -2710.8586    634.12557    12015.224 
   98050    304.69399    219.78548   -3159.5159   -2706.3067     697.2527     12004.95 
   98100    302.06946    219.71721   -3157.2403   -2707.9349    868.36556    11994.784 
   98150    309.52197    219.91885   -3163.9616   -2703.5712    853.43346    11984.803 
   98200    307.80486    219.94478    -3164.826   -2706.9896    1020.7271     11975.02 
   98250    305.42522     219.8898   -3162.9932   -2708.6963      1200.47    11965.516 
   98300    321.59228    220.38909   -3179.6364   -2701.2923    883.92155    11956.359 
   98350    306.42075    219.92422   -3164.1407   -2708.3631    1383.5118    11947.448 
   98400    300.35779    219.82456   -3160.8185   -2714.0591    1534.4479    11938.988 
   98450    308.03771    220.03726   -3167.9085   -2709.7258    1409.9849    11931.076 
   98500    309.16528    220.03738   -3167.9126   -2708.0527    1474.7856    11923.663 
   98550    325.24761    220.52729   -3184.2429   -2700.4617    1142.8395    11916.727 
   98600    304.37324    219.89363   -3163.1209   -2710.3888    1731.3938    11910.169 
   98650    307.07188    219.96888   -3165.6293   -2708.8832    1755.6575     11904.22 
   98700    312.24566    220.21478   -3173.8259   -2709.3842    1644.6286    11898.952 
   98750     305.4734    220.05731   -3168.5769   -2714.2083    1839.1352    11894.303 
   98800    309.62403    220.30003   -3176.6676   -2716.1254    1727.0131    11890.311 
   98850    308.47771     220.2139   -3173.7965   -2714.9593    1751.0217    11886.996 
   98900     326.3682     220.7899   -3192.9967   -2707.5488    1231.8111     11884.31 
   98950    306.13604    220.26708   -3175.5693   -2720.2152     1786.165    11882.061 
   99000    306.07987    220.39655   -3179.8851   -2724.6145    1733.4365    11880.451 
   99050    303.93332    220.32358   -3177.4527   -2725.3749    1743.7177    11879.514 
   99100    315.94173    220.70781   -3190.2604    -2720.321    1351.7494    11879.205 
   99150    310.52676     220.5702   -3185.6732   -2723.7882     1404.301    11879.373 
   99200    304.79163    220.43751   -3181.2502   -2727.8958    1510.4002    11880.024 
   99250    305.71321    220.55854   -3185.2848   -2730.5596    1418.8501    11881.201 
   99300    287.79135     220.0386   -3167.9534   -2739.8856    1869.3637    11882.922 
   99350    298.77579     220.3591   -3178.6366   -2734.2302    1520.2045    11885.338 
   99400    302.17932    220.55879   -3185.2931   -2735.8243    1269.7938     11888.34 
   99450    296.22027     220.4436   -3181.4533   -2740.8481    1313.3072    11891.798 
   99500    303.94321    220.77143   -3192.3808   -2740.2884    1014.4492    11895.688 
   99550    301.03183    220.72267   -3190.7556   -2742.9936    1015.7965    11899.892 
   99600    278.29652    220.07323   -3169.1077   -2755.1627    1467.8822    11904.436 
   99650    291.80808    220.49127   -3183.0423   -2748.9999    929.81822    11909.475 
   99700    298.37456    220.76467   -3192.1555    -2748.346    647.72242    11914.792 
   99750    307.67037    221.08121    -3202.707   -2745.0707    268.68541     11920.22 
   99800    298.35343     220.8229   -3194.0967   -2750.3186     421.9638    11925.583 
   99850    290.66097    220.60484   -3186.8278   -2754.4917    549.98316    11930.948 
   99900    286.17806    220.52292   -3184.0974   -2758.4292    596.32056    11936.373 
   99950     283.0044    220.41919   -3180.6396    -2759.692    667.85833    11941.906 
  100000    291.95248    220.78295    -3192.765   -2758.5078    374.99494    11947.564 
Loop time of 27.0946 on 1 procs for 100000 steps with 500 atoms

Performance: 318.883 ns/day, 0.075 hours/ns, 3690.775 timesteps/s
98.7% CPU use with 1 MPI tasks x 1 OpenMP threads

MPI task timing breakdown:
Section |  min time  |  avg time  |  max time  |%varavg| %total
---------------------------------------------------------------
Pair    | 22.161     | 22.161     | 22.161     |   0.0 | 81.79
Bond    | 0.0069566  | 0.0069566  | 0.0069566  |   0.0 |  0.03
Neigh   | 0.51831    | 0.51831    | 0.51831    |   0.0 |  1.91
Comm    | 0.78504    | 0.78504    | 0.78504    |   0.0 |  2.90
Output  | 0.01826    | 0.01826    | 0.01826    |   0.0 |  0.07
Modify  | 2.7792     | 2.7792     | 2.7792     |   0.0 | 10.26
Other   |            | 0.8257     |            |       |  3.05

Nlocal:    500 ave 500 max 500 min
Histogram: 1 0 0 0 0 0 0 0 0 0
Nghost:    1564 ave 1564 max 1564 min
Histogram: 1 0 0 0 0 0 0 0 0 0
Neighs:    14629 ave 14629 max 14629 min
Histogram: 1 0 0 0 0 0 0 0 0 0

Total # of neighbors = 14629
Ave neighs/atom = 29.258
Ave special neighs/atom = 0
Neighbor list builds = 627
Dangerous builds = 0

write_data      ${walker}/final_restart_file
write_data      4/final_restart_file

quit
