LAMMPS (19 May 2017)
Processor partition = 5
  using 1 OpenMP thread(s) per MPI task
# gREM variables
variable        lambda world 1000 1005 1010 1015 1020 1025 1030 1035 1040 1045 1050 1055 1060 1065 1070 1075
variable        walker world 0 1 2 3 4 5 6 7 8 9 10 11 12 13 14 15
variable        replica world 0 1 2 3 4 5 6 7 8 9 10 11 12 13 14 15

variable        T0 equal 300.0
variable        press equal 0.0

units           real
atom_style      full
pair_style      lj/cut 5.0

# LJ particles
read_data       init_restart_file
  orthogonal box = (1.27034 1.27034 1.27034) to (23.7297 23.7297 23.7297)
  1 by 1 by 1 MPI processor grid
  reading atoms ...
  500 atoms
  reading velocities ...
  500 velocities
  0 = max # of 1-2 neighbors
  0 = max # of 1-3 neighbors
  0 = max # of 1-4 neighbors
  1 = max # of special neighbors

#dump            dump all xyz 1000 ${rep}/dump.xyz

fix             fxnpt all npt temp ${T0} ${T0} 1000.0 iso ${press} ${press} 10000.0
fix             fxnpt all npt temp 300 ${T0} 1000.0 iso ${press} ${press} 10000.0
fix             fxnpt all npt temp 300 300 1000.0 iso ${press} ${press} 10000.0
fix             fxnpt all npt temp 300 300 1000.0 iso 0 ${press} 10000.0
fix             fxnpt all npt temp 300 300 1000.0 iso 0 0 10000.0
fix             fxgREM all grem ${lambda} -.03 -30000 fxnpt
fix             fxgREM all grem 1025 -.03 -30000 fxnpt
thermo_modify   press fxgREM_press

thermo          50
thermo_style    custom step temp f_fxgREM pe etotal press vol
WARNING: New thermo_style command, previous thermo_modify settings will be lost (../output.cpp:705)
timestep        1.0

temper/grem     100000 1000 ${lambda} fxgREM fxnpt 10294 98392 #${walker}
temper/grem     100000 1000 1025 fxgREM fxnpt 10294 98392 
Neighbor list info ...
  update every 1 steps, delay 10 steps, check yes
  max neighbors/atom: 2000, page size: 100000
  master list distance cutoff = 7
  ghost atom cutoff = 7
  binsize = 3.5, bins = 7 7 7
  1 neighbor lists, perpetual/occasional/extra = 1 0 0
  (1) pair lj/cut, perpetual
      attributes: half, newton on
      pair build: half/bin/newton
      stencil: half/bin/3d/newton
      bin: standard
Per MPI rank memory allocation (min/avg/max) = 5.728 | 5.728 | 5.728 Mbytes
Step Temp f_fxgREM PotEng TotEng Press Volume 
       0    299.42262      227.507      -3416.9   -2971.5315    1317.0315    11328.967 
      50     225.1541    225.14431   -3338.1437    -3003.244    3620.4441    11329.285 
     100    198.74963    224.34728   -3311.5761   -3015.9511    4448.5361    11331.052 
     150     209.3063     224.7254     -3324.18   -3012.8527    4032.8347    11334.737 
     200     220.3367    225.03941   -3334.6472    -3006.913    3698.8548    11340.181 
     250    225.40765    225.11267   -3337.0891   -3001.8123    3512.5202    11347.228 
     300    223.32448    225.00654   -3333.5513    -3001.373    3515.8498    11355.789 
     350    217.13992    224.74335   -3324.7782    -3001.799     3570.241    11365.873 
     400    231.42445    225.14185   -3338.0615   -2993.8352    3003.7939    11377.471 
     450    219.72741    224.72583   -3324.1945   -2997.3666    3203.0145    11390.397 
     500    223.66856     224.7406   -3324.6865   -2991.9965     2969.965    11404.666 
     550    225.48215    224.77476   -3325.8253   -2990.4377    2761.0487    11420.219 
     600     229.0316     224.8429   -3328.0967   -2987.4296    2440.4444    11436.929 
     650     225.9707     224.5994   -3319.9801   -2983.8658    2370.5109    11454.649 
     700    220.74521    224.42474   -3314.1579   -2985.8161    2291.5217    11473.354 
     750    223.44171    224.40764   -3313.5881   -2981.2355    1990.2297    11492.989 
     800    223.77354    224.32406   -3310.8019   -2977.9558    1728.8578    11513.404 
     850    218.59139    224.11165   -3303.7215   -2978.5834    1639.6252    11534.489 
     900    224.74642    224.18847   -3306.2824   -2971.9891    1277.7888    11556.169 
     950    224.68567      224.118   -3303.9335   -2969.7306    1062.3582    11578.263 
    1000    227.57027     224.1252   -3304.1733   -2965.6798    753.35739    11600.646 
    1050    227.99782    219.20441   -3306.8137   -2967.6842    425.91624    11623.155 
    1100    221.09407    218.81138   -3293.7128   -2964.8522    480.19179    11645.628 
    1150    217.86031    218.62762   -3287.5873   -2963.5366    384.55187    11668.065 
    1200    224.55104    218.73606    -3291.202   -2957.1993   -12.632084    11690.386 
    1250    231.71945    218.85261    -3295.087   -2950.4219   -364.25284    11712.393 
    1300    223.64371    218.50144   -3283.3813   -2950.7282   -368.31004    11733.922 
    1350    231.58873    218.69283   -3289.7609   -2945.2903   -816.30533    11754.909 
    1400    226.46614    218.36035   -3278.6782    -2941.827   -768.96647     11775.18 
    1450    226.26775    218.20844   -3273.6145   -2937.0584   -905.97526    11794.697 
    1500    216.73823    217.82977   -3260.9923   -2938.6106    -811.3061    11813.426 
    1550    214.59008    217.69561   -3256.5203   -2937.3338   -806.08451    11831.386 
    1600    218.69351    217.67186   -3255.7286   -2930.4385   -1025.0923    11848.584 
    1650    225.53734    217.82103    -3260.701   -2925.2313   -1414.5378    11864.896 
    1700    226.89509     217.8039     -3260.13   -2922.6408   -1562.8562    11880.153 
    1750    236.85389    217.98146   -3266.0488   -2913.7466   -1830.9288    11894.246 
    1800    228.50898    217.66084   -3255.3613   -2915.4716   -1667.0812    11907.077 
    1850    232.52322      217.674   -3255.7999   -2909.9392    -1847.194    11918.698 
    1900    231.09048    217.49205    -3249.735   -2906.0054   -1818.7606    11929.049 
    1950    235.16283    217.48515   -3249.5051   -2899.7182    -1910.275    11938.139 
    2000    224.57868    217.06933   -3235.6443   -2901.6005   -1623.7029     11945.96 
    2050    230.53678    222.17415   -3239.1384   -2896.2324   -1783.6321    11952.636 
    2100    226.07537    221.97527    -3232.509   -2896.2391    -1597.479    11958.149 
    2150    228.62964    221.94449   -3231.4829   -2891.4136   -1566.4809    11962.571 
    2200    234.24197    222.03922   -3234.6406   -2886.2235   -1729.3085    11965.941 
    2250    230.72858    221.75856   -3225.2854   -2882.0941   -1541.4668    11968.206 
    2300    232.53411    221.78112   -3226.0372   -2880.1604   -1517.7859    11969.447 
    2350    234.94087    221.83869   -3227.9562   -2878.4995   -1574.2866    11969.697 
    2400    236.32774    221.78001   -3226.0004   -2874.4808   -1445.3577    11968.946 
    2450    237.19422    221.65772    -3221.924   -2869.1155   -1266.4352    11967.276 
    2500    234.73682    221.49663   -3216.5542    -2867.401   -1036.0256    11964.785 
    2550    233.80023    221.37225   -3212.4084   -2864.6483   -931.05808    11961.605 
    2600    264.43111    222.22394   -3240.7981   -2847.4769    -1686.884    11957.743 
    2650     248.7323    221.67294   -3222.4312   -2852.4607    -989.7386    11952.935 
    2700     241.8019    221.41075   -3213.6916   -2854.0296   -595.48458    11947.457 
    2750    243.02166    221.41175   -3213.7251   -2852.2488   -507.00559    11941.537 
    2800    250.85704    221.57565   -3219.1882   -2846.0574   -637.05346    11935.236 
    2850    271.93225    222.14404   -3238.1348   -2833.6561   -1144.3847    11928.469 
    2900    259.01526    221.68714   -3222.9048   -2837.6392   -576.01041    11921.036 
    2950    246.42805    221.20744   -3206.9146   -2840.3715    85.094791    11913.206 
    3000    252.42996    221.33473   -3211.1577   -2835.6873     138.9187    11905.307 
    3050    266.81801    216.71818   -3223.9392   -2827.0676   -114.37473    11897.359 
    3100    260.80244    216.41707   -3213.9022   -2825.9784    276.27887     11889.28 
    3150    264.23369    216.45985   -3215.3282   -2822.3007    419.21754    11881.219 
    3200    274.94845      216.685   -3222.8334   -2813.8684    290.38235    11873.248 
    3250    274.78716    216.60691   -3220.2304   -2811.5053    427.50901    11865.324 
    3300    276.35285    216.60589   -3220.1962   -2809.1423    469.92294    11857.482 
    3350    287.65496    216.90405   -3230.1351   -2802.2702    249.89446    11849.753 
    3400    283.99157    216.70377   -3223.4592   -2801.0432    556.00597     11842.05 
    3450    276.77049    216.38545   -3212.8482   -2801.1731    978.45489    11834.495 
    3500    285.59094    216.69412   -3223.1374   -2798.3425    816.03206    11827.288 
    3550    291.33049    216.77657   -3225.8858   -2792.5537    895.55019    11820.364 
    3600    272.70867    216.05877   -3201.9589   -2796.3254    1644.8487    11813.803 
    3650    282.27726    216.18471    -3206.157    -2786.291    1566.0122    11807.893 
    3700    295.76366    216.55428    -3218.476     -2778.55    1352.4359    11802.616 
    3750    292.53247    216.28325   -3209.4417   -2774.3218    1591.2688    11797.877 
    3800    289.72451    216.12799   -3204.2664   -2773.3231    1790.6839    11793.736 
    3850    295.95479    216.33244   -3211.0815   -2770.8712    1773.3121    11790.309 
    3900    302.75584    216.53974   -3217.9912   -2767.6649     1627.997    11787.583 
    3950    299.22104    216.30228   -3210.0761   -2765.0075    1839.3391    11785.476 
    4000    296.73345    216.17838   -3205.9459   -2764.5774     1987.552    11784.077 
    4050    295.71095    221.09629   -3203.2098   -2763.3622    2063.8021    11783.472 
    4100     289.4504    220.80984   -3193.6613   -2763.1257    2337.8807    11783.696 
    4150    301.47721    221.12955   -3204.3182   -2755.8937    2086.1663    11784.855 
    4200    304.03377    221.13758   -3204.5862    -2752.359    2015.1089     11786.85 
    4250    308.58622    221.33972   -3211.3239   -2752.3252    1797.9655    11789.596 
    4300     307.5301    221.21382   -3207.1273   -2749.6996    1874.4704    11792.996 
    4350    292.29907    220.62381   -3187.4603   -2752.6876    2327.1983    11797.094 
    4400    294.56193    220.66263   -3188.7544   -2750.6158    2251.1784    11802.075 
    4450     293.0918    220.57936   -3185.9786   -2750.0268    2291.1695    11807.933 
    4500    305.33994    220.88715   -3196.2383   -2742.0683    1960.6644    11814.646 
    4550    298.00148    220.58368   -3186.1225   -2742.8679    2052.0977    11822.088 
    4600    311.98167     220.9977   -3199.9232   -2735.8742    1576.8559    11830.224 
    4650    297.64223    220.51888   -3183.9625   -2741.2423    1970.4773    11838.919 
    4700    306.72785     220.7325   -3191.0835   -2734.8491    1715.3438    11848.263 
    4750    300.24021    220.38488    -3179.496   -2732.9114    1886.5948    11858.194 
    4800    296.88209    220.28166   -3176.0554   -2734.4658    1919.7164    11868.771 
    4850     306.3858    220.59424   -3186.4745   -2730.7489    1497.8277     11879.98 
    4900    297.90175    220.22361   -3174.1204   -2731.0141    1686.3463    11891.664 
    4950    294.05454    219.97979    -3165.993   -2728.6092    1705.4843    11903.867 
    5000     306.0246    220.31924   -3177.3079   -2722.1195    1225.4985    11916.572 
    5050     311.5018    215.45663   -3181.8878   -2718.5525    922.99118    11929.561 
    5100    301.10521    215.07528    -3169.176   -2721.3049     1062.088    11942.672 
    5150    311.97016     215.4549   -3181.8301   -2717.7982    664.90252    11955.916 
    5200    310.11861    215.31555   -3177.1849   -2715.9069    672.14274    11969.139 
    5250     292.8323    214.76299   -3158.7663   -2723.2004    1001.1479     11982.33 
    5300    306.52392    215.06714   -3168.9048   -2712.9737     486.1214    11995.625 
    5350     322.7289    215.52583   -3184.1944   -2704.1596   -115.55128     12008.78 
    5400    308.39654    215.04525   -3168.1752   -2709.4587    178.61509    12021.524 
    5450    298.62134    214.68812   -3156.2708   -2712.0941    356.85835    12033.961 
    5500    297.38442    214.57394   -3152.4648    -2710.128    321.53469    12046.193 
    5550    292.93768    214.41202   -3147.0675   -2711.3449    432.21133    12058.222 
    5600    288.08281    214.23424   -3141.1414     -2712.64    482.22958     12070.11 
    5650    292.60039    214.26118   -3142.0393   -2706.8184    299.09252    12081.861 
    5700     300.8557    214.48926    -3149.642   -2702.1419   -97.844181    12093.386 
    5750    320.86152    215.10314   -3170.1045   -2692.8473   -812.03909    12104.472 
    5800    311.73831    214.72104   -3157.3681    -2693.681   -532.17039    12114.792 
    5850    305.33066    214.56523   -3152.1743   -2698.0181   -398.54466    12124.438 
    5900    295.78348    214.16955   -3138.9851   -2699.0296   -189.39545     12133.52 
    5950    295.11712    214.07383   -3135.7944     -2696.83   -236.23104    12142.122 
    6000    302.63067    214.33989   -3144.6631    -2694.523   -617.37379    12150.228 
    6050    306.99801    214.35494   -3145.1645   -2688.5283   -777.87553    12157.668 
    6100    294.36861    213.87781   -3129.2603   -2691.4093    -354.6922    12164.378 
    6150    297.89062    214.01126   -3133.7086   -2690.6189   -431.66511    12170.538 
    6200    307.80263    214.34994   -3144.9981    -2687.165   -763.47789    12176.118 
    6250    289.34319    213.67725    -3122.575   -2692.1989   -254.43919     12181.02 
    6300    293.75315    213.73224    -3124.408   -2687.4725   -420.46224    12185.434 
    6350    301.99418    214.01026   -3133.6753   -2684.4818   -757.44785    12189.318 
    6400    309.62611    214.16967   -3138.9889   -2678.4436   -923.32608    12192.504 
    6450     293.3184    213.58926    -3119.642   -2683.3531   -424.53968    12194.934 
    6500    308.66496    214.07568   -3135.8559   -2676.7402   -839.35006    12196.785 
    6550    310.91694    214.14162   -3138.0541   -2675.5887     -954.579     12197.92 
    6600    295.84948    213.71818   -3123.9394   -2683.8857   -591.48076    12198.277 
    6650    294.93024    213.65135   -3121.7118   -2683.0254   -476.13198    12198.029 
    6700    302.61009    213.82151   -3127.3838   -2677.2742   -604.48123    12197.257 
    6750    305.64093    213.94274   -3131.4248   -2676.8071   -676.58273    12195.898 
    6800    310.12338    213.95357   -3131.7857   -2670.5007   -648.00532    12193.922 
    6850    303.47198    213.67881    -3122.627   -2671.2354   -322.60683    12191.375 
    6900    290.66391     213.3082   -3110.2734   -2677.9328    64.665025    12188.421 
    6950     307.1907     213.7978   -3126.5934   -2669.6705   -372.81067    12185.214 
    7000    313.91045    214.01598   -3133.8661   -2666.9481    -538.2074    12181.591 
    7050    316.52705    219.03654   -3134.5512   -2663.7412   -464.54828    12177.446 
    7100    302.53035    218.64461   -3121.4871   -2671.4961   -15.978799    12172.869 
    7150    302.55522    218.65491   -3121.8304   -2671.8024    57.669069    12168.044 
    7200    304.81944    218.63547   -3121.1822   -2667.7864     21.96341    12163.054 
    7250    320.45611    219.14341   -3138.1138   -2661.4596   -437.99969    12157.845 
    7300    291.51186    218.23478   -3107.8259   -2674.2241    453.05653    12152.268 
    7350    306.68717    218.83934    -3127.978    -2671.804    65.773725    12146.654 
    7400    317.18353    219.02898   -3134.2992   -2662.5128   -142.97337      12140.9 
    7450    309.11743    218.70292   -3123.4306   -2663.6419    98.384862    12134.892 
    7500    321.21984    219.18256   -3139.4187   -2661.6285   -182.37801    12128.671 
    7550    309.72007    218.79703   -3126.5677   -2665.8826    265.62394    12122.213 
    7600    321.83125    219.20653   -3140.2176    -2661.518    47.244836    12115.657 
    7650    311.55045    218.90921   -3130.3071   -2666.8994    438.01678     12108.96 
    7700    300.84882    218.62721   -3120.9069   -2673.4171    886.67096    12102.303 
    7750    305.97534    218.71674   -3123.8915   -2668.7763    851.41977    12095.924 
    7800    311.07418    218.95348   -3131.7827   -2669.0835    753.10582    12089.816 
    7850    320.87235    219.20784   -3140.2614   -2662.9881    632.14634    12083.886 
    7900     320.8016    219.20719   -3140.2396   -2663.0715    670.93609    12078.105 
    7950    323.14893    219.27012   -3142.3373   -2661.6777    627.06701    12072.446 
    8000      308.056    218.83802   -3127.9341   -2669.7241    991.99752    12066.947 
    8050    322.14528    214.32506   -3144.1687    -2665.002    586.44333    12061.709 
    8100    314.89098    214.08837   -3136.2791   -2667.9027    812.09091    12056.598 
    8150    334.02719    214.74523   -3158.1742   -2661.3341    375.14547    12051.628 
    8200     312.0406    214.03559   -3134.5197    -2670.383    1036.0139     12046.69 
    8250    314.42567    214.20632   -3140.2107   -2672.5263    946.34793    12042.027 
    8300    321.44848     214.4417   -3148.0568   -2669.9265    648.46086    12037.638 
    8350    330.94237    214.81718   -3160.5726   -2668.3209    366.62215    12033.351 
    8400    324.49566    214.58213   -3152.7376   -2670.0749    655.07956    12029.049 
    8450    325.69029    214.62264    -3154.088   -2669.6484    671.29379    12024.823 
    8500    330.92772    215.02155   -3167.3849    -2675.155    475.12059    12020.698 
    8550    318.10933     214.6586   -3155.2867   -2682.1231    874.03618    12016.618 
    8600    307.83423    214.39639   -3146.5465   -2688.6664    1145.2001     12012.74 
    8650    306.59698    214.38567   -3146.1889   -2690.1492    1087.7798    12009.236 
    8700    330.22337    215.15001   -3171.6669   -2680.4846    397.09192    12006.022 
    8750     313.4777     214.6671   -3155.5699   -2689.2956    962.91447    12002.843 
    8800    310.87567    214.71368   -3157.1227   -2694.7187     1061.109    11999.893 
    8850    306.70588    214.50867   -3150.2889   -2694.0871    1149.9377     11997.27 
    8900    309.78822    214.74058   -3158.0192   -2697.2327    944.46057    11994.976 
    8950    305.20276    214.60454   -3153.4847   -2699.5187    944.55225    11992.945 
    9000    308.22643    214.84539   -3161.5131   -2703.0497     778.7977    11991.149 
    9050    309.53386    214.94389   -3164.7964   -2704.3882    696.58944    11989.529 
    9100    320.96786    215.29036   -3176.3454     -2698.93    306.06451    11988.001 
    9150    302.40269    214.75579   -3158.5262   -2708.7251    752.44816    11986.427 
    9200    292.83306    214.57232   -3152.4107   -2716.8437    1024.5528    11984.984 
    9250    305.51497     215.0418     -3168.06   -2713.6296    675.72141    11983.808 
    9300    310.10401    215.19207   -3173.0691   -2711.8129     502.6547    11982.747 
    9350     294.0743     214.8306     -3161.02   -2723.6068    808.88191    11981.719 
    9400    314.36158    215.54332   -3184.7772   -2717.1882    164.09237    11980.807 
    9450    311.26358    215.50597   -3183.5324   -2720.5514    235.33331    11979.777 
    9500    306.79954    215.32491   -3177.4969   -2721.1558    354.76676    11978.628 
    9550    309.51274     215.4338   -3181.1267   -2720.7499    218.29695    11977.397 
    9600    292.70035    214.99419   -3166.4728   -2731.1032    602.94987    11976.061 
    9650    289.09413    214.95315   -3165.1051   -2735.0995    688.00169    11974.791 
    9700    286.24695     214.9256   -3164.1865   -2738.4159    781.51782    11973.652 
    9750    303.37806    215.46478   -3182.1592   -2730.9073    328.09265    11972.644 
    9800    298.28271    215.29301   -3176.4338   -2732.7609    435.39278    11971.597 
    9850     299.5493    215.40225    -3180.075   -2734.5181     399.4845    11970.514 
    9900    295.53789     215.2544   -3175.1467   -2735.5565    480.38115    11969.421 
    9950    301.24378    215.49607   -3183.2024   -2735.1251    254.32197    11968.309 
   10000    295.50919     215.3779   -3179.2634   -2739.7159    354.11175    11967.111 
   10050    289.11886    210.24111   -3174.7035   -2744.6611     533.0316    11965.859 
   10100    296.07622    210.51948   -3183.9828   -2743.5919     274.1393    11964.613 
   10150    301.29461    210.71268   -3190.4227   -2742.2698    136.57815    11963.263 
   10200     295.6583    210.62768   -3187.5895   -2747.8202    300.94568    11961.754 
   10250    303.82086    210.88459    -3196.153   -2744.2425    103.20097    11960.124 
   10300    296.89511    210.68434   -3189.4779   -2747.8689    290.67038    11958.307 
   10350    294.36335      210.656   -3188.5335   -2750.6903     327.3182    11956.376 
   10400    289.49578    210.61577   -3187.1922   -2756.5892    422.90331    11954.375 
   10450    292.75621    210.69438   -3189.8127   -2754.3601    390.46878    11952.347 
   10500    289.41989    210.61232   -3187.0774   -2756.5873    554.78984    11950.279 
   10550    293.68891    210.82623   -3194.2076   -2757.3676    403.99414    11948.231 
   10600    294.06806    210.84629   -3194.8764   -2757.4724    336.52749    11946.163 
   10650    301.25359    211.09945    -3203.315   -2755.2231    150.12295    11944.012 
   10700     299.3107    211.01529   -3200.5097   -2755.3078    212.69701    11941.693 
   10750    293.08618    210.78343   -3192.7812   -2756.8377    390.53338    11939.246 
   10800    294.82701    210.90312   -3196.7706   -2758.2377    334.23685    11936.754 
   10850    295.78864    211.00564   -3200.1881   -2760.2249    310.04533    11934.188 
   10900    291.12915    210.74957   -3191.6524   -2758.6198    564.53459    11931.549 
   10950    286.77138    210.63109   -3187.7029   -2761.1522     685.0147    11928.948 
   11000    295.72083    210.86908   -3195.6361   -2755.7738    342.95059    11926.443 
   11050    308.66196    211.44695   -3214.8982   -2755.7869    -142.0142    11923.849 
   11100    284.25885    210.71411   -3190.4705    -2767.657    512.71653    11920.999 
   11150     292.0148    210.95676   -3198.5587   -2764.2089    406.20971    11918.118 
   11200    289.82187    210.83471   -3194.4903   -2763.4022    564.67855    11915.229 
   11250     278.4673    210.53371   -3184.4568   -2770.2578    863.60787    11912.395 
   11300    295.50188    211.05719   -3201.9064   -2762.3698    431.73163    11909.721 
   11350     293.8017     211.0165   -3200.5501   -2763.5423    476.19204    11907.062 
   11400    300.26455    211.27107   -3209.0356   -2762.4149    280.46617    11904.371 
   11450    294.61872    211.09771    -3203.257    -2765.034    478.94029    11901.603 
   11500    280.72884    210.67663    -3189.221   -2771.6581    958.11202    11898.851 
   11550    289.79229    210.93315   -3197.7717   -2766.7277    814.59625    11896.313 
   11600    299.60221    211.35808    -3211.936   -2766.3004     549.9757    11893.955 
   11650    291.45198    211.12823   -3204.2744   -2770.7616    793.75292    11891.657 
   11700    289.11605    211.00042   -3200.0139   -2769.9757    960.15198    11889.521 
   11750    288.40924     210.9696   -3198.9865   -2769.9996    1036.2687    11887.641 
   11800    287.19564    210.89355   -3196.4518     -2769.27    1003.4966    11886.034 
   11850    297.62459    211.33148   -3211.0492   -2768.3552    631.20642    11884.681 
   11900     287.3326    210.98738   -3199.5794    -2772.194       967.87    11883.445 
   11950    294.67866    211.18009    -3206.003   -2767.6908    813.15505    11882.425 
   12000    288.63494    210.91148   -3197.0493   -2767.7267    920.04458    11881.613 
   12050    290.49753    211.07913   -3202.6376   -2770.5446     769.5367        11881 
   12100    296.12136    211.21355   -3207.1182   -2766.6601    667.33456    11880.535 
   12150    283.95291     210.8237   -3194.1235   -2771.7651    1064.4925    11880.199 
   12200    299.73635    211.28594   -3209.5313   -2763.6962    660.85464    11880.107 
   12250    291.29577    210.89967   -3196.6556   -2763.3752    892.86627    11880.141 
   12300    288.71168    210.83476   -3194.4921   -2765.0554    994.80445    11880.367 
   12350    298.79392    211.18894   -3206.2979   -2761.8646    774.31213    11880.829 
   12400    303.02616    211.36288   -3212.0959   -2761.3675    604.98536    11881.428 
   12450    291.25971    210.91215   -3197.0718   -2763.8451    935.44964    11882.115 
   12500    295.46043    210.91479   -3197.1597   -2757.6847    987.00288    11883.018 
   12550    301.12492    211.08806   -3202.9354    -2755.035    837.26539    11884.168 
   12600     301.4624    211.02723   -3200.9075    -2752.505     906.0397    11885.492 
   12650    293.98188    210.83968    -3194.656   -2757.3802    1205.2734    11887.034 
   12700    288.11703    210.65554   -3188.5181   -2759.9658    1323.0375    11888.945 
   12750    313.23261     211.3818   -3212.7265   -2746.8167     546.9412    11891.229 
   12800     294.2585    210.84257   -3194.7523    -2757.065    999.38882    11893.594 
   12850    292.69618    210.74492   -3191.4975   -2756.1341    1004.0698    11896.185 
   12900     302.2209    210.99298   -3199.7661   -2750.2354    713.86231     11899.02 
   12950     298.8301    210.87559    -3195.853   -2751.3658    866.64712    11901.994 
   13000    298.09058    210.77373   -3192.4578   -2749.0706    924.92508    11905.158 
   13050    304.20432    210.92953   -3197.6511   -2745.1703    752.55954    11908.514 
   13100    289.04897    210.51005   -3183.6685     -2753.73    1116.5925    11912.023 
   13150    300.18162    210.84292    -3194.764   -2748.2666    698.53257    11915.792 
   13200    309.79124    211.06748   -3202.2495   -2741.4585    360.12837    11919.657 
   13250    309.70782     211.0635   -3202.1167   -2741.4498    373.39168    11923.444 
   13300    303.86453    210.82552   -3194.1839   -2742.2085    498.16748    11927.162 
   13350    291.56202    210.34307   -3178.1022   -2744.4258    880.88891    11930.875 
   13400    297.28457    210.65099   -3188.3663   -2746.1781    688.27335    11934.741 
   13450    294.34157    210.54294   -3184.7648    -2746.954    704.32733    11938.717 
   13500    293.01829    210.47049   -3182.3498   -2746.5073    700.63134    11942.778 
   13550    284.93772    210.17742   -3172.5808   -2748.7575    941.68315    11946.967 
   13600    297.86737     210.5205   -3184.0167   -2740.9616    593.78693    11951.354 
   13650    300.36638    210.56994   -3185.6646   -2738.8924    436.82169    11955.799 
   13700    304.99135    210.59973   -3186.6576    -2733.006    292.84054    11960.182 
   13750    296.68133    210.30003   -3176.6676   -2735.3766    474.93802    11964.468 
   13800    292.93471    210.17555   -3172.5185   -2736.8003    565.17949    11968.745 
   13850    299.35463    210.34759   -3178.2532   -2732.9858    404.23609    11973.036 
   13900     302.7099    210.47089   -3182.3629   -2732.1049    278.13576    11977.259 
   13950    295.51574    210.17365   -3172.4549   -2732.8977    510.71576    11981.372 
   14000    299.33135    210.21762   -3173.9206    -2728.688    517.18044    11985.462 
   14050    300.82403    215.24377   -3174.7923   -2727.3394    457.96887    11989.575 
   14100    299.81514    215.16611   -3172.2038   -2726.2515    408.95998    11993.655 
   14150     293.0582    214.94543   -3164.8478   -2728.9459    481.23389    11997.693 
   14200    295.32525    214.96897   -3165.6323   -2726.3584    383.59332    12001.729 
   14250    293.89554    214.93274   -3164.4247   -2727.2774     450.8702    12005.709 
   14300    287.31458    214.72048   -3157.3495   -2729.9908    589.53044    12009.693 
   14350    304.54376    215.29018   -3176.3395   -2723.3537    36.034976    12013.694 
   14400    303.70564    215.13553   -3171.1844   -2719.4453    116.68222    12017.488 
   14450    293.17919    214.83077   -3161.0258    -2724.944    405.14668    12021.095 
   14500    300.67412    214.96016   -3165.3385   -2718.1086    261.74685     12024.64 
   14550    300.79146    215.00308   -3166.7693   -2719.3648    224.48065    12028.076 
   14600    298.85077    214.79965   -3159.9885   -2715.4706     291.7354     12031.39 
   14650    318.07328    215.43824   -3181.2745   -2708.1646   -244.81235    12034.546 
   14700    303.28184    214.85677   -3161.8923   -2710.7836    198.72765     12037.36 
   14750    303.72837    214.90765   -3163.5884   -2711.8155    121.27823    12039.977 
   14800    300.47609    214.82105   -3160.7015   -2713.7661    176.31085     12042.42 
   14850    302.61514    214.77682   -3159.2274   -2709.1103    227.43914    12044.686 
   14900    290.38222     214.4373   -3147.9101   -2715.9886    559.97728    12046.848 
   14950    302.97102    214.83748   -3161.2492   -2710.6027    100.17965    12049.013 
   15000    309.83665    214.99556   -3166.5188   -2705.6603   -112.17512    12050.983 
   15050    300.31643    219.62008   -3154.0026   -2707.3047    273.03109    12052.664 
   15100    298.67256    219.50778   -3150.2593   -2706.0065    373.26492    12054.229 
   15150    301.04868    219.57733   -3152.5776   -2704.7905    342.55044    12055.747 
   15200    296.70398    219.40465   -3146.8216   -2705.4969     476.7715    12057.208 
   15250    292.02093    219.26033   -3142.0109   -2707.6519    548.95947    12058.686 
   15300    299.75236    219.57941   -3152.6469    -2706.788    350.54003    12060.203 
   15350    296.49914    219.35001   -3145.0004   -2703.9804    596.29119    12061.698 
   15400    294.41179    219.19833   -3139.9444   -2702.0292    680.28466    12063.266 
   15450    295.96518    219.24308    -3141.436   -2701.2102    540.69615    12064.941 
   15500    297.75924    219.22853   -3140.9508   -2698.0565    389.09208     12066.66 
   15550       300.36    219.35793   -3145.2642   -2698.5014    265.30721    12068.356 
   15600    312.08229    219.68995   -3156.3316   -2692.1328    11.354746    12069.921 
   15650    300.67898    219.28871    -3142.957   -2695.7198    376.99406     12071.29 
   15700    307.41742    219.47645   -3149.2148   -2691.9547    270.70078    12072.579 
   15750    289.63151     218.9802   -3132.6735   -2701.8685    768.00166    12073.808 
   15800    313.85285    219.69527    -3156.509   -2689.6767    57.860756    12075.138 
   15850    310.33498    219.48983   -3149.6611   -2688.0614    81.966715    12076.302 
   15900    308.23059    219.44772   -3148.2573   -2689.7876    17.604254    12077.254 
   15950    313.74506    219.52503   -3150.8345   -2684.1625   -84.721141    12077.959 
   16000    310.86221    219.44534   -3148.1779   -2685.7939    141.73319    12078.368 
   16050    301.86862    219.19584   -3139.8613   -2690.8546    453.73207    12078.617 
   16100    295.42406    218.98312   -3132.7706   -2693.3497    674.37872    12078.858 
   16150    288.90677    218.79953   -3126.6508   -2696.9239    844.22133    12079.217 
   16200    307.50973    219.32601   -3144.2004   -2686.8029    282.05186    12079.749 
   16250     325.0321    219.88552   -3162.8508   -2679.3902   -297.36955    12080.184 
   16300    314.28937    219.45822   -3148.6074   -2681.1258    74.411542    12080.263 
   16350    304.87238    219.14079   -3138.0265   -2684.5519    404.90238    12080.127 
   16400    301.46731    218.97709   -3132.5696   -2684.1599    573.31234    12079.944 
   16450    294.15876    218.71053   -3123.6842   -2686.1453    859.14423    12079.823 
   16500    287.75408    218.58717   -3119.5722   -2691.5598     1038.553    12079.927 
   16550    310.76931    219.28522   -3142.8406   -2680.5948    352.87267    12080.309 
   16600    329.92195    219.85193   -3161.7308   -2670.9969   -248.72201    12080.631 
   16650    311.25258    219.25485   -3141.8284   -2678.8637    250.19207    12080.618 
   16700    309.01024    219.17724   -3139.2413    -2679.612    354.25826    12080.444 
   16750    306.36133    219.05622   -3135.2074   -2679.5181    450.47821    12080.214 
   16800    314.16564    219.32464   -3144.1547   -2676.8571     194.0967    12079.952 
   16850     308.4676    219.26116   -3142.0388   -2683.2166    313.03548    12079.573 
   16900    308.93299    219.24659   -3141.5529   -2682.0385    454.07941    12079.116 
   16950     302.5758    219.02293   -3134.0977   -2684.0391    674.54189    12078.652 
   17000    307.17425    219.24769   -3141.5896   -2684.6911    453.90657    12078.289 
   17050    310.91641    224.26739   -3142.2463   -2679.7817    329.06135    12077.943 
   17100    307.65276    224.19797   -3139.9323   -2682.3221    358.48565    12077.536 
   17150    312.88116    224.41347   -3147.1158   -2681.7287    134.73529     12077.08 
   17200    319.72125    224.62744   -3154.2481    -2678.687   -18.717678    12076.467 
   17250    303.19571    224.04565   -3134.8549   -2683.8743    568.68918    12075.647 
   17300    297.94937    223.92808   -3130.9361    -2687.759    730.15103    12074.879 
   17350    300.99549    224.09632    -3136.544    -2688.836    651.47637     12074.26 
   17400    287.66196    223.69624   -3123.2079   -2695.3325    1014.9834    12073.794 
   17450    300.85382    224.12044    -3137.348   -2689.8508    607.32551    12073.604 
   17500     306.6732    224.35337   -3145.1123   -2688.9591     461.3328    12073.523 
   17550    302.88002    224.32002   -3144.0006   -2693.4895    505.54628    12073.468 
   17600    307.61828     224.4796   -3149.3199    -2691.761     291.0548    12073.444 
   17650    298.32842    224.19454   -3139.8179    -2696.077    537.68374    12073.365 
   17700    285.63781    223.78496   -3126.1652   -2701.3006     819.6251    12073.353 
   17750    304.79305    224.47393    -3149.131   -2695.7744    158.12906    12073.511 
   17800    297.44195     224.3423   -3144.7432   -2702.3209    391.82472    12073.577 
   17850    287.42362    224.01196    -3133.732   -2706.2112    677.80807     12073.63 
   17900    296.62474    224.32802   -3144.2675   -2703.0606    315.96739    12073.786 
   17950    305.85325    224.58891   -3152.9638   -2698.0303     48.34007    12073.894 
   18000    300.28046      224.435   -3147.8333   -2701.1888    218.74217    12073.816 
   18050    303.00013    224.69332    -3156.444   -2705.7543   -15.850498    12073.601 
   18100    302.92209    224.69623   -3156.5411   -2705.9675   -144.09992    12073.167 
   18150    292.60982     224.3736   -3145.7866   -2710.5517    212.48276    12072.442 
   18200    288.19217    224.27021   -3142.3403   -2713.6763    381.73263      12071.6 
   18250    293.14801    224.47861   -3149.2871   -2713.2517    131.91922    12070.728 
   18300    294.62369    224.57927   -3152.6423   -2714.4119     33.34005    12069.711 
   18350    289.69976     224.5033     -3150.11   -2719.2036    189.54914    12068.514 
   18400    303.42172    224.95974   -3165.3246   -2714.0078   -223.15179    12067.161 
   18450    286.34354    224.49971   -3149.9903    -2724.076    184.54492    12065.521 
   18500     284.1745     224.4705   -3149.0168   -2726.3288     198.9515    12063.732 
   18550    289.13631    224.71579   -3157.1929   -2727.1245   -16.774593    12061.816 
   18600    278.71138    224.40459   -3146.8197   -2732.2577    314.47802    12059.706 
   18650    281.39546    224.47811   -3149.2702   -2730.7158    321.94736    12057.538 
   18700    290.27854    224.89058   -3163.0192   -2731.2519    70.224034    12055.316 
   18750    289.82514     224.8191   -3160.6366   -2729.5436     181.8204    12052.933 
   18800    277.20531     224.4283   -3147.6099    -2735.288    475.55686    12050.446 
   18850    290.04832    224.90413    -3163.471   -2732.0461    25.574367    12047.952 
   18900    290.50144     224.9567   -3165.2233   -2733.1244    3.7877132    12045.278 
   18950    286.85685    224.79068   -3159.6893   -2733.0115    185.77239    12042.391 
   19000    290.72999    224.97613   -3165.8711   -2733.4323     37.25823     12039.37 
   19050    306.36547    225.48044   -3182.6813   -2726.9859    -417.3917    12036.122 
   19100    290.19524    224.93537   -3164.5124    -2732.869      49.7966    12032.486 
   19150    282.83194    224.72621   -3157.5404   -2736.8493    331.59954    12028.642 
   19200    294.41166    225.10095   -3170.0316   -2732.1166    28.210315     12024.72 
   19250     298.7943    225.32935   -3177.6449   -2733.2111   -72.423153    12020.597 
   19300    278.75951     224.6364   -3154.5466    -2739.913    587.03981    12016.262 
   19350    283.83074    224.81908    -3160.636   -2738.4593    448.38351    12011.977 
   19400    290.66747     225.0514   -3168.3801   -2736.0343     278.5135    12007.714 
   19450    280.89769    224.73354   -3157.7846   -2739.9706    630.30996    12003.422 
   19500    292.05778    225.05831   -3168.6104   -2734.1966    389.31336    11999.207 
   19550    284.05683    224.78341   -3159.4471   -2736.9341    656.97589    11995.018 
   19600    291.63887    225.00803   -3166.9342   -2733.1435    468.64062    11990.925 
   19650    299.39341     225.1943   -3173.1433   -2727.8183     290.0312    11986.857 
   19700     299.2197    225.25671   -3175.2237   -2730.1571    347.89746     11982.73 
   19750    293.11819    225.08476   -3169.4918   -2733.5008    616.20387    11978.571 
   19800    285.78007    224.83109   -3161.0362     -2735.96    951.00717    11974.511 
   19850    286.29263     224.8811   -3162.7033   -2736.8647    949.17304    11970.721 
   19900    295.42549    225.19792   -3173.2639   -2733.8408    732.92294    11967.194 
   19950    279.29831    224.63653    -3154.551   -2739.1159    1307.7711    11963.884 
   20000     305.2148    225.48348   -3182.7827   -2728.7989    564.91435    11960.966 
   20050    308.16476    225.51817   -3183.9389   -2725.5672    497.84002    11958.161 
   20100    293.44676    225.10391   -3170.1303   -2733.6505    986.02503    11955.415 
   20150    287.86709    224.88093   -3162.6977   -2734.5172    1249.7646    11952.965 
   20200    310.92588    225.61526   -3187.1754   -2724.6967    626.77904    11950.901 
   20250    312.29015    225.59137    -3186.379   -2721.8711    636.23923    11948.988 
   20300    299.16491    225.21385   -3173.7951     -2728.81    1064.2462    11947.192 
   20350    292.90524    224.93706   -3164.5686   -2728.8942    1304.9111    11945.719 
   20400    298.22377    225.13324   -3171.1079   -2727.5226    1158.9209     11944.69 
   20450    299.98348    225.07931   -3169.3102   -2723.1075    1141.1637    11944.055 
   20500    297.57263    224.99571   -3166.5236   -2723.9068     1232.694    11943.807 
   20550    297.02982    224.94224   -3164.7414   -2722.9321    1245.0609     11943.98 
   20600    295.23644    224.88946   -3162.9819   -2723.8401    1214.6998    11944.571 
   20650    284.89118    224.52257   -3150.7524   -2726.9983    1511.5993    11945.606 
   20700    307.38988    225.15996   -3171.9985   -2714.7794    901.23957    11947.162 
   20750    307.11588    225.08896   -3169.6321   -2712.8205    935.80137    11949.006 
   20800    315.32663     225.3458   -3178.1932   -2709.1687    765.08874     11951.08 
   20850    294.02662    224.73067    -3157.689   -2720.3467    1413.4452    11953.387 
   20900    290.99739    224.61315   -3153.7718   -2720.9352    1586.3432    11956.195 
   20950    298.19592    224.82677   -3160.8922   -2717.3484    1325.7619    11959.615 
   21000    316.93566    225.37145   -3179.0482   -2707.6304    727.87106    11963.492 
   21050    308.30204    220.05347   -3168.4491   -2709.8732    1004.0294    11967.556 
   21100    306.52227    219.88702   -3162.9008   -2706.9722     1065.697    11971.914 
   21150     319.2492    220.25539   -3175.1798   -2700.3208    628.49975    11976.575 
   21200    297.97624    219.60738   -3153.5795   -2710.3624    1116.8767    11981.377 
   21250    317.25355    220.13485   -3171.1617   -2699.2711    484.31445    11986.465 
   21300    302.76745     219.7053   -3156.8432   -2706.4996    889.25601     11991.64 
   21350    293.77739    219.36351   -3145.4505   -2708.4789    1275.6037    11997.036 
   21400    308.86322    219.73667    -3157.889   -2698.4783    800.90986     12002.84 
   21450    307.85302    219.57573   -3152.5242   -2694.6162    741.83147    12008.862 
   21500    323.07844    220.13237    -3171.079   -2690.5243    265.48441        12015 
   21550    311.59617    219.69953   -3156.6509   -2693.1752    620.12886    12021.086 
   21600    307.26997    219.46812   -3148.9373   -2691.8965    852.17921    12027.243 
   21650    289.81649    218.81269   -3127.0896   -2696.0095    1364.0994    12033.663 
   21700    303.17564    219.16137   -3138.7124   -2687.7616    874.28809    12040.514 
   21750    325.37948    219.76023   -3158.6744    -2674.697    168.11807    12047.586 
   21800    324.16464     219.6743     -3155.81   -2673.6397    294.19594    12054.544 
   21850    318.44672    219.43752   -3147.9173    -2674.252    430.72045    12061.412 
   21900    317.40035    219.41646   -3147.2153   -2675.1063    374.64272    12068.238 
   21950    298.41962    218.71378   -3123.7927   -2679.9161    915.52784    12075.065 
   22000    308.29852    219.06086    -3135.362   -2676.7913    535.58118    12082.112 
   22050    311.34006    224.06155   -3135.3849   -2672.2902    441.94827    12089.248 
   22100    317.04424    224.19095   -3139.6982   -2668.1189    314.44808    12096.392 
   22150    327.27317    224.48375   -3149.4585   -2662.6644    42.160229    12103.473 
   22200     297.7922    223.41166   -3113.7221   -2670.7788    903.60455    12110.417 
   22250    305.64413    223.57273   -3119.0911   -2664.4686    656.65745    12117.553 
   22300    307.34825    223.63789    -3121.263   -2664.1058    528.96236    12124.846 
   22350    305.56255    223.56256   -3118.7521    -2664.251    561.47983    12132.201 
   22400    316.30185    223.84141   -3128.0469   -2657.5718    216.23522    12139.608 
   22450    306.79487    223.46178   -3115.3928   -2659.0587    451.56773    12146.935 
   22500    308.06775    223.40586   -3113.5286   -2655.3012    372.58613    12154.241 
   22550    303.73095    223.26925   -3108.9751   -2657.1984     482.7864    12161.546 
   22600    299.91101    223.16799   -3105.5996   -2659.5047    589.33077    12168.894 
   22650    308.24992    223.36999   -3112.3331   -2653.8347    223.79184    12176.314 
   22700    314.21816    223.53736   -3117.9119   -2650.5362   -48.621449    12183.646 
   22750    306.40351    223.21893   -3107.2977   -2651.5457     140.8421    12190.747 
   22800    312.31295    223.41496   -3113.8321   -2649.2903   -119.05202    12197.665 
   22850    313.09819    223.42347   -3114.1157   -2648.4059   -177.04637    12204.315 
   22900    316.46835    223.46544   -3115.5146   -2644.7919   -308.36562    12210.621 
   22950    311.85898    223.32129   -3110.7097   -2646.8431   -326.61282    12216.516 
   23000    313.68282    223.33462   -3111.1539   -2644.5745   -449.44115    12221.989 
   23050    303.76545    222.94516   -3098.1719   -2646.3438   -197.21189    12226.997 
   23100    308.59912    223.21673   -3107.2244   -2648.2066   -391.46476    12231.612 
   23150    311.84821    223.32649    -3110.883   -2647.0324   -425.63941     12235.79 
   23200    310.77382    223.29075   -3109.6916   -2647.4391   -395.67787    12239.506 
   23250    307.64594    223.16514   -3105.5045   -2647.9045   -314.85877    12242.761 
   23300    300.78499    222.89319   -3096.4396   -2649.0448   -96.179582    12245.603 
   23350    309.51508    223.21779   -3107.2597   -2646.8795   -382.94512    12248.118 
   23400    297.80886    222.82574   -3094.1912   -2651.2231   -120.88723    12250.219 
   23450    309.64908    223.11607   -3103.8691   -2643.2895   -503.40946    12251.976 
   23500    312.42219    223.22095   -3107.3651   -2642.6608   -683.98665     12253.24 
   23550    304.94426     222.9991   -3099.9699   -2646.3884   -482.29275    12253.909 
   23600    306.86256    223.10956   -3103.6521   -2647.2173   -541.60265    12254.057 
   23650    303.64314    223.00676   -3100.2254   -2648.5793   -409.39607    12253.679 
   23700    306.62089    223.14119   -3104.7063    -2648.631   -528.94277    12252.828 
   23750    316.86888     223.4554     -3115.18   -2643.8616   -860.86951    12251.433 
   23800    313.48034    223.41402   -3113.8007   -2647.5224   -752.71925     12249.34 
   23850    304.54973    223.13459   -3104.4862   -2651.4916   -473.35915    12246.604 
   23900     305.3479    223.17852   -3105.9506   -2651.7687   -530.61925    12243.348 
   23950     311.8984    223.41436   -3113.8119   -2649.8866   -680.99513    12239.549 
   24000    317.13033    223.64408   -3121.4693    -2649.762   -802.15232    12235.139 
   24050    305.51373    218.36336   -3112.1121   -2657.6836   -516.58969    12230.066 
   24100    310.25931    218.47264   -3115.7545   -2654.2673   -502.67389    12224.428 
   24150    298.88634    218.12543    -3104.181   -2659.6102   -131.71439    12218.297 
   24200    310.08668     218.4634   -3115.4466   -2654.2162   -415.57013      12211.8 
   24250    303.09663    218.31475   -3110.4917   -2659.6585   -190.26317    12204.853 
   24300    297.69716    218.12177   -3104.0592   -2661.2572   -1.3760023    12197.548 
   24350    313.70354    218.64789   -3121.5964   -2654.9862   -378.71387    12189.966 
   24400    314.72733    218.72564    -3124.188    -2656.055   -310.57582     12181.96 
   24450     319.7709    218.93232   -3131.0774   -2655.4424   -376.54416    12173.522 
   24500    312.05762    218.60817   -3120.2723   -2656.1102   -48.547359    12164.654 
   24550    313.01813    218.63339   -3121.1129   -2655.5221    103.48499    12155.491 
   24600    316.46515    218.88725    -3129.575    -2658.857    167.22079    12146.123 
   24650     318.1816    218.92866   -3130.9552   -2657.6842     218.1881    12136.598 
   24700    316.00662    218.92853   -3130.9511   -2660.9152    332.99547    12126.948 
   24750    303.48424    218.52957   -3117.6524   -2666.2426    744.95695    12117.227 
   24800    306.66558    218.64609   -3121.5364   -2665.3946    699.68573    12107.641 
   24850    329.41201    219.45656    -3148.552   -2658.5766    123.25574    12098.163 
   24900    294.04847    218.43485    -3114.495   -2677.1202    1114.5453     12088.59 
   24950    313.36665    219.08179   -3136.0598   -2669.9507    619.84028    12079.286 
   25000    319.90412    219.26036   -3142.0121    -2666.179    502.88532     12070.12 
   25050    326.69853    219.68645   -3156.2151   -2670.2758    249.42826    12060.956 
   25100    325.68846    219.72182   -3157.3939    -2672.957    316.67735    12051.686 
   25150    302.91759    218.97355   -3132.4517   -2681.8848    1094.3844     12042.37 
   25200    317.53441    219.53421   -3151.1402   -2678.8318    752.53718    12033.323 
   25250    312.95352    219.45796   -3148.5987    -2683.104    980.84028    12024.486 
   25300    320.78018    219.62584   -3154.1945   -2677.0583    894.35069     12015.91 
   25350      320.279    219.72571   -3157.5237    -2681.133    922.67775    12007.551 
   25400    310.94076    219.47096    -3149.032   -2686.5312    1329.8402    11999.472 
   25450     323.3124    219.89087   -3163.0291   -2682.1264    1075.9233    11991.826 
   25500    311.17378    219.48317   -3149.4389   -2686.5915    1373.0934     11984.53 
   25550    310.62025    219.59233   -3153.0776   -2691.0535    1329.2606    11977.695 
   25600    320.08287    219.95816    -3165.272   -2689.1729    1092.3508    11971.328 
   25650    315.21442    219.82417   -3160.8058   -2691.9482    1329.3568    11965.333 
   25700    310.61831    219.63869   -3154.6228   -2692.6016    1568.8791    11959.786 
   25750     312.0874    219.77087    -3159.029   -2694.8226    1478.8432    11954.809 
   25800    319.39103    220.16632   -3172.2106   -2697.1407    1239.3371    11950.349 
   25850    311.26046    219.91377   -3163.7922   -2700.8159    1569.6057    11946.322 
   25900    309.33911    219.89427   -3163.1423   -2703.0238    1602.6848     11942.86 
   25950    307.94757    219.83577   -3161.1924   -2703.1437    1701.0201    11939.987 
   26000    296.88691    219.49382    -3149.794   -2708.1972    2046.9975    11937.783 
   26050    322.47546    220.40903   -3180.3009   -2700.6431    1182.7661    11936.337 
   26100    304.98919    219.90003   -3163.3345   -2709.6862    1545.6827    11935.355 
   26150     319.0435    220.41851   -3180.6169   -2706.0638    1044.9797    11934.881 
   26200    311.17597    220.15324   -3171.7748   -2708.9241    1187.5281    11934.757 
   26250    306.35285    219.99499   -3166.4996    -2710.823    1332.7671    11935.001 
   26300    305.47181    220.03602   -3167.8674   -2713.5012    1247.4823    11935.687 
   26350    318.49041    220.54826   -3184.9419   -2711.2115    900.89617    11936.756 
   26400    298.73597    219.94729   -3164.9097   -2720.5626    1445.8166    11938.119 
   26450    311.18133    220.31318    -3177.106   -2714.2473    1040.5925    11939.936 
   26500    303.73358    220.15825   -3171.9416    -2720.161    1172.2264    11942.089 
   26550    298.43335    219.94607   -3164.8691   -2720.9721    1295.6836    11944.621 
   26600    297.60625    219.96973   -3165.6578   -2722.9911    1250.2994    11947.582 
   26650    298.64013    219.98178   -3166.0594   -2721.8549    1247.6695    11950.962 
   26700    300.54775    220.07264    -3169.088    -2722.046    1131.8453    11954.764 
   26750    310.83782    220.42622   -3180.8739   -2718.5261     760.5661    11958.887 
   26800    299.50601    220.08774   -3169.5914   -2724.0989     1077.289    11963.196 
   26850     292.7553    219.84715   -3161.5716   -2726.1203    1245.8807    11967.829 
   26900    285.33802    219.58317   -3152.7723   -2728.3536    1279.0763    11972.878 
   26950    288.40407    219.73798   -3157.9327   -2728.9535    939.40211    11978.346 
   27000    304.99126    220.28516   -3176.1721   -2722.5207    313.24328    11984.072 
   27050    297.72142    220.02733   -3167.5776   -2724.7396    491.67083     11989.77 
   27100    296.56048    220.10741   -3170.2471   -2729.1359    539.59217    11995.472 
   27150    288.60959    219.82234   -3160.7447   -2731.4598    829.66132    12001.242 
   27200    291.96013    219.98837    -3166.279   -2732.0104    592.54851    12007.181 
   27250    309.96907    220.53007   -3184.3356   -2723.2801   -28.805166    12013.175 
   27300    300.78259    220.25636    -3175.212   -2727.8207    180.22495     12018.96 
   27350    292.72343    219.99648   -3166.5494   -2731.1455    354.74425    12024.586 
   27400    288.60264    219.94729   -3164.9098   -2735.6352    298.29612     12030.16 
   27450    302.39411    220.17865   -3172.6218   -2722.8335   -108.88601     12035.64 
   27500    298.29036    220.09226   -3169.7422   -2726.0578    -84.78021    12040.836 
   27550    291.87888    219.88329   -3162.7762   -2728.6285    57.377244    12045.743 
   27600    293.63657    220.02714   -3167.5713   -2730.8091   -126.88577    12050.441 
   27650    296.52882    220.13154   -3171.0515   -2729.9873   -347.94085     12054.84 
   27700    285.62678    219.73674   -3157.8913   -2733.0431   -62.579159    12058.837 
   27750    288.68524    219.87963   -3162.6545    -2733.257   -161.54442    12062.551 
   27800    291.99912    219.97777   -3165.9255    -2731.599   -277.92186    12065.952 
   27850     288.5295    219.78583   -3159.5278    -2730.362     -145.778    12068.982 
   27900    277.66693    219.34308   -3144.7692   -2731.7607    262.45731    12071.722 
   27950    288.33234    219.72671    -3157.557   -2728.6845   -24.990055    12074.319 
   28000    287.86847    219.76417   -3158.8055    -2730.623   -123.42349    12076.693 
   28050    289.38099    214.81601   -3160.5336   -2730.1013   -247.37872    12078.756 
   28100    300.11387    215.14134    -3171.378   -2724.9813   -549.13331    12080.415 
   28150    289.07766    214.76974   -3158.9912   -2729.0101   -251.18966    12081.573 
   28200    290.64421    214.76027   -3158.6758   -2726.3645   -265.24187    12082.336 
   28250    300.38715    215.13643   -3171.2143   -2724.4112   -514.45401    12082.688 
   28300    303.29505     215.2031   -3173.4367   -2722.3083   -586.76459    12082.515 
   28350    303.66296    215.17266   -3172.4219   -2720.7463   -564.84234    12081.775 
   28400    279.65759    214.43471   -3147.8237   -2731.8542    135.26787    12080.525 
   28450    287.68042    214.66595   -3155.5318    -2727.629   -39.108038    12079.049 
   28500    282.51348    214.47303   -3149.1011   -2728.8837    217.65346     12077.34 
   28550    287.94669    214.64696   -3154.8986   -2726.5997    133.74873     12075.47 
   28600    286.83934    214.53783    -3151.261   -2724.6092    133.97311    12073.445 
   28650    290.97483    214.69164   -3156.3881   -2723.5851    77.683215    12071.229 
   28700    289.68384    214.56298   -3152.0995   -2721.2167    257.18895    12068.817 
   28750    299.44097    214.74047   -3158.0157   -2712.6199    52.393782    12066.288 
   28800    309.86789    215.09496    -3169.832    -2708.927   -335.68344    12063.525 
   28850    308.89702    215.04198    -3168.066   -2708.6051   -343.76307     12060.34 
   28900    307.28554    215.00477   -3166.8255   -2709.7616   -269.90178    12056.718 
   28950    302.88835    214.89089   -3163.0297   -2712.5062   -92.166224    12052.695 
   29000    300.73146    214.77359   -3159.1197   -2711.8044    170.59609    12048.377 
   29050    292.68088     219.5235   -3150.7833   -2715.4427     539.0183    12043.934 
   29100    302.13479    219.76056   -3158.6854   -2709.2828    311.66506    12039.516 
   29150     307.8313    219.93717   -3164.5724   -2706.6967    190.38447    12035.038 
   29200    312.91057    220.05071   -3168.3571   -2702.9264    215.05387    12030.427 
   29250    294.17438    219.43048   -3147.6828   -2710.1207    907.44115    12025.739 
   29300    313.66901    220.02417   -3167.4722   -2700.9133    460.46253    12021.221 
   29350    305.46236     219.7012   -3156.7066   -2702.3545    786.21268    12016.754 
   29400    295.13119     219.3191   -3143.9701   -2704.9848    1240.6785    12012.469 
   29450    301.60703    219.46159   -3148.7196    -2700.102    1149.2155    12008.579 
   29500    318.35762     219.9441   -3164.8032   -2691.2704    731.66082    12005.044 
   29550    316.11612    219.83581   -3161.1937    -2690.995     865.3194    12001.681 
   29600    302.00601    219.41869   -3147.2896   -2698.0785    1395.2465    11998.546 
   29650    310.03652    219.65113   -3155.0375   -2693.8817     1182.577    11995.877 
   29700     321.2088    220.00381   -3166.7938     -2689.02    838.15257    11993.572 
   29750    306.21308    219.50508   -3150.1694   -2694.7006    1268.4383    11991.497 
   29800    321.52298    220.05476   -3168.4921    -2690.251    772.73513    11989.788 
   29850     312.1384    219.66597   -3155.5324   -2691.2502    1030.7092    11988.299 
   29900    314.42264    219.69729   -3156.5765   -2688.8966    1025.9837    11987.071 
   29950     313.4857     219.6815     -3156.05   -2689.7638    1095.1704    11986.133 
   30000    313.82457    219.64292    -3154.764   -2687.9737    1124.9078    11985.518 
   30050    319.99641    214.78141   -3159.3803   -2683.4099    970.24406    11985.234 
   30100     326.4006     215.0491   -3168.3034   -2682.8073    807.60843    11985.194 
   30150     311.1411    214.61301   -3153.7669   -2690.9681     1288.217    11985.341 
   30200    311.43523    214.62522    -3154.174   -2690.9377    1262.8978    11985.861 
   30250    309.03104    214.51341   -3150.4472   -2690.7869    1245.7449    11986.802 
   30300    319.51413    214.86248   -3162.0827   -2686.8296    957.47085    11988.114 
   30350    303.67758     214.2987   -3143.2899   -2691.5925    1443.2103    11989.721 
   30400    321.92432    214.99019   -3166.3397   -2687.5016    900.44615    11991.771 
   30450    319.75938    214.93061   -3164.3538    -2688.736    963.95992    11994.067 
   30500    303.60441      214.459   -3148.6334   -2697.0448    1335.6663    11996.603 
   30550    316.62809    214.76221   -3158.7405   -2687.7802    929.94376    11999.542 
   30600    306.24568    214.36369   -3145.4562    -2689.939    1130.0932    12002.765 
   30650    321.12702    214.91171   -3163.7237   -2686.0716    706.70106    12006.267 
   30700    313.45499    214.64802    -3154.934   -2688.6935    944.86012    12009.921 
   30750    317.79609    214.93624   -3164.5412   -2691.8436    654.16773    12013.767 
   30800     318.8857    214.91883    -3163.961   -2689.6427    539.29385    12017.688 
   30850    299.70744    214.33509   -3144.5031    -2698.711     1045.044     12021.66 
   30900    295.45955    214.29073   -3143.0245   -2703.5508    1091.0873     12025.91 
   30950    320.10484     215.1101   -3170.3368   -2694.2051    280.66273    12030.428 
   31000    311.36169     214.8538   -3161.7932   -2698.6663     456.0357    12034.883 
   31050    302.40658    209.64866   -3154.9553   -2705.1485    663.01265    12039.316 
   31100    305.11743    209.74484   -3158.1613   -2704.3223    485.23041    12043.804 
   31150    302.68337    209.73559   -3157.8531   -2707.6345    415.09257    12048.284 
   31200    309.70832    209.97036   -3165.6785   -2705.0109    88.855843    12052.694 
   31250    294.96854    209.49454   -3149.8181   -2711.0747    417.72794     12056.91 
   31300    309.19977    210.00326   -3166.7752    -2706.864   -38.510907    12061.047 
   31350    327.81159    210.47026    -3182.342   -2694.7471   -661.26394    12064.893 
   31400    308.91262    209.88895    -3162.965   -2703.4809   -210.30057    12068.153 
   31450    293.07518     209.5719   -3152.3965   -2716.4694    199.73381    12071.024 
   31500    296.91792    209.71951    -3157.317   -2715.6741    5.0125892    12073.703 
   31550    318.46395    210.42695   -3180.8982   -2707.2072   -658.94814    12076.082 
   31600    312.37718    210.07442   -3169.1474     -2704.51   -438.63984    12077.885 
   31650    303.95656    209.92376   -3164.1253    -2712.013   -352.92383    12079.167 
   31700    297.94585     209.8496   -3161.6533   -2718.4814   -332.19809    12079.987 
   31750    295.49067    209.77242   -3159.0807   -2719.5607   -207.23897    12080.362 
   31800    298.08637    209.84143    -3161.381   -2718.0001   -269.48683    12080.361 
   31850    314.92559    210.37799   -3179.2662   -2710.8383   -792.56586    12079.912 
   31900    292.23916     209.7768   -3159.2266    -2724.543   -239.40796    12078.834 
   31950    298.17702    209.93645   -3164.5484   -2721.0327   -328.83788    12077.316 
   32000    288.01949    209.60333   -3153.4445   -2725.0373    39.339266    12075.395 
   32050    293.42465    204.74393   -3158.1308   -2721.6839   -91.778288    12073.206 
   32100    293.34057    204.80678   -3160.2259    -2723.904   -199.62301    12070.696 
   32150    309.56099    205.31495   -3177.1651   -2716.7166   -612.10078    12067.767 
   32200     307.9619    205.26872    -3175.624    -2717.554   -471.09651    12064.268 
   32250    306.44699    205.27707   -3175.9022   -2720.0856   -390.30144    12060.219 
   32300    298.74378    205.06907    -3168.969   -2724.6102   -282.69946    12055.692 
   32350    318.50911    205.58203   -3186.0678   -2712.3096   -724.17983    12050.691 
   32400     305.9534    205.20829   -3173.6097   -2718.5272   -258.62709     12045.08 
   32450    302.54887    205.15361   -3171.7869   -2721.7684    -99.57927    12039.019 
   32500    293.11824    204.87856   -3162.6187   -2726.6275     191.8532    12032.643 
   32550    305.14723    205.27668   -3175.8892   -2722.0058   -19.787787    12026.065 
   32600    308.29608    205.37746   -3179.2488   -2720.6817   -60.765912    12019.216 
   32650    306.40361    205.28575   -3176.1916   -2720.4394    65.558573     12012.06 
   32700    296.36936     205.0402   -3168.0066   -2727.1797    471.68312    12004.668 
   32750    291.79786    204.92713   -3164.2375   -2730.2103    646.22444    11997.247 
   32800    306.89111    205.40254   -3180.0846   -2723.6073    249.82925    11989.858 
   32850     301.9382    205.34557   -3178.1856   -2729.0755    373.26296    11982.354 
   32900    301.61983    205.31565   -3177.1882   -2728.5515    471.81985    11974.775 
   32950    308.68357    205.50019   -3183.3396   -2724.1962    393.36839    11967.142 
   33000    307.19422    205.49922   -3183.3072   -2726.3791    454.55564    11959.446 
   33050    310.78084    205.61924    -3187.308   -2725.0451     354.1884    11951.704 
   33100    307.02713    205.54004    -3184.668   -2727.9884    606.67831    11943.885 
   33150    302.86311    205.37315   -3179.1048   -2728.6189    900.21424    11936.102 
   33200    312.98435    205.67502   -3189.1673   -2723.6268    705.47554     11928.49 
   33250    319.44208    205.89641   -3196.5469   -2721.4011      588.162    11920.966 
   33300    314.92779    205.82765   -3194.2551   -2725.8239    833.93796    11913.476 
   33350    306.48883    205.60831   -3186.9437   -2731.0647    1111.3518    11906.152 
   33400     316.8632    205.92721   -3197.5738   -2726.2638    906.77809    11899.093 
   33450    305.95477    205.66021   -3188.6738   -2733.5893    1272.9118    11892.248 
   33500    299.12203    205.43402   -3181.1338   -2736.2125    1515.1316    11885.779 
   33550    308.18698    205.70334   -3190.1113   -2731.7066    1300.4682     11879.79 
   33600    308.23901    205.78105   -3192.7017   -2734.2195     1313.927    11874.217 
   33650    322.42152    206.23998   -3207.9994   -2728.4218    880.03267    11869.022 
   33700    315.82593    206.01144   -3200.3814   -2730.6143    1066.2839    11864.016 
   33750    300.66761    205.72201   -3190.7337   -2743.5134    1493.1556    11859.281 
   33800    299.37991    205.64731   -3188.2436   -2742.9387    1669.9556    11855.027 
   33850    313.46607    206.23796    -3207.932    -2741.675    1279.4344    11851.321 
   33900    307.65086    206.10719   -3203.5728   -2745.9655    1335.5194     11848.02 
   33950    299.42229    205.90629   -3196.8762   -2751.5082    1532.1948    11845.124 
   34000    297.00783    205.83861   -3194.6204   -2752.8438    1544.4589    11842.742 
   34050    326.23487     206.6766   -3222.5533   -2737.3037    782.07339    11840.832 
   34100    318.22335     206.4627   -3215.4234   -2742.0903    936.74215    11839.106 
   34150    318.02128     206.4918   -3216.3934   -2743.3608    976.34423    11837.536 
   34200    300.23944    205.97685   -3199.2285   -2752.6451    1542.8038    11836.197 
   34250    287.62159    205.62107   -3187.3689   -2759.5536    1856.7002     11835.38 
   34300    310.10496    206.36731   -3212.2438   -2750.9862    1186.4917    11835.186 
   34350    299.43779    206.05065   -3201.6884   -2756.2973    1436.2841    11835.378 
   34400    303.32706    206.20662   -3206.8874   -2755.7114    1300.3585    11836.004 
   34450    307.81844      206.373   -3212.4333   -2754.5767    1125.0515    11837.016 
   34500    296.52828    206.09381    -3203.127   -2762.0636    1354.4393    11838.334 
   34550    298.44799    206.24127   -3208.0424   -2764.1236    1221.4119    11840.048 
   34600    304.42857    206.40944   -3213.6478   -2760.8334    1014.5296    11842.129 
   34650      298.608    206.26612   -3208.8708    -2764.714    1063.7228    11844.463 
   34700    285.98949    205.91982   -3197.3272   -2771.9395    1290.5997    11847.077 
   34750    293.58031    206.16213   -3205.4043   -2768.7258    1035.5325    11850.067 
   34800    296.12083     206.2755   -3209.1834   -2768.7261     888.5534    11853.325 
   34850    304.59129    206.56959   -3218.9864   -2765.9299    586.41638    11856.748 
   34900    294.66864    206.35748   -3211.9161   -2773.6188    751.66581    11860.217 
   34950    288.56137    206.20166   -3206.7219   -2777.5088    881.98995      11863.8 
   35000    299.37529     206.5552   -3218.5065   -2773.2084    547.45167    11867.544 
   35050    294.80143    206.33275   -3211.0918    -2772.597    621.00864    11871.327 
   35100    292.90675    206.17937   -3205.9789   -2770.3023     655.9574    11875.159 
   35150    283.12734    205.89738   -3196.5794    -2775.449    935.63451    11879.078 
   35200    291.06692    206.14792   -3204.9306   -2771.9906    702.79744    11883.191 
   35250    286.00665    206.06498   -3202.1661   -2776.7529    737.26516    11887.413 
   35300    288.87035    206.12424   -3204.1413   -2774.4686    600.70508    11891.731 
   35350    300.86203    206.53649    -3217.883   -2770.3735    135.25628     11896.08 
   35400    298.53571    206.50887   -3216.9623   -2772.9131    153.09081    11900.241 
   35450    272.54085    205.68463   -3189.4878   -2784.1039    858.70128    11904.258 
   35500    295.81062    206.39096   -3213.0321   -2773.0363    165.99169    11908.376 
   35550     297.9836    206.48421   -3216.1403   -2772.9122   -6.7940541    11912.354 
   35600    290.69892    206.28668   -3209.5558   -2777.1632    109.36636    11916.065 
   35650    284.96997    206.07723   -3202.5745   -2778.7033    269.55586     11919.57 
   35700    294.13962    206.25159   -3208.3863   -2770.8759    101.02513    11922.931 
   35750    286.14912    206.02475   -3200.8251      -2775.2     266.4533    11926.109 
   35800    294.58815    206.29201   -3209.7337   -2771.5561    26.328612    11929.116 
   35850    286.64358    205.99702   -3199.9007   -2773.5401    247.46519    11931.889 
   35900    287.07543    206.06359   -3202.1196   -2775.1167    125.38371    11934.525 
   35950    290.91746    206.13357   -3204.4524   -2771.7347    59.117248    11936.972 
   36000    289.57061     206.1024   -3203.4133    -2772.699    44.213321    11939.182 
   36050     284.8999    205.91246    -3197.082    -2773.315    117.77689    11941.139 
   36100    284.10713    205.94274   -3198.0915   -2775.5036     66.22519    11942.893 
   36150    273.04997    205.48606   -3182.8688   -2776.7277    406.81509    11944.459 
   36200    289.51233    205.93546   -3197.8486    -2767.221    3.9017081    11945.921 
   36250    305.99805    206.47724   -3215.9081   -2760.7592   -440.21141    11947.123 
   36300    283.45291    205.68465   -3189.4884   -2767.8737    229.79376    11947.881 
   36350    299.05013    206.21416   -3207.1388   -2762.3244   -174.33864    11948.417 
   36400    294.19232    205.95678   -3198.5595   -2760.9707    11.669191    11948.632 
   36450    292.35433      205.926   -3197.5334   -2762.6784     184.5342    11948.571 
   36500    295.81491    205.99275   -3199.7583    -2759.756    87.596174    11948.323 
   36550      293.972    205.89607   -3196.5356   -2759.2745    140.42787    11947.853 
   36600    284.02209    205.59416    -3186.472   -2764.0107    479.06242    11947.203 
   36650    280.97734    205.36822   -3178.9407   -2761.0082    674.91138    11946.536 
   36700    304.31221    206.04022   -3201.3405   -2748.6992    87.428479    11945.907 
   36750     294.4638    205.66795   -3188.9316    -2750.939    429.46549    11945.101 
   36800    299.50847    205.83176   -3194.3921   -2748.8959    344.14114    11944.216 
   36850     304.7927    205.97819   -3199.2729   -2745.9168    230.85135    11943.243 
   36900    297.61966    205.75664   -3191.8878   -2749.2012    434.36451    11942.129 
   36950     298.2632    205.80684   -3193.5612   -2749.9173    433.80507    11940.962 
   37000    299.35998    205.75713   -3191.9045   -2746.6292    511.15069     11939.75 
   37050    305.33823    205.94479   -3198.1597   -2743.9922     411.4182    11938.504 
   37100    306.33409    205.88701   -3196.2336   -2740.5848    387.95272    11937.201 
   37150    305.44375    205.85651   -3195.2169   -2740.8924    417.79621    11935.812 
   37200    305.57002    205.70972   -3190.3241   -2735.8119    529.42093    11934.359 
   37250    303.46591    205.71379   -3190.4597   -2739.0772    589.01954    11932.892 
   37300    299.24235    205.65154   -3188.3846   -2743.2843    736.01523    11931.452 
   37350    291.69644     205.3828   -3179.4266   -2745.5503    945.65063     11930.12 
   37400    300.34724    205.59808   -3186.6026   -2739.8588    743.04556    11928.995 
   37450    313.57533    205.97006   -3199.0021   -2732.5826    479.47948    11927.979 
   37500    303.10253    205.66733   -3188.9112   -2738.0691    821.13346    11926.953 
   37550    305.61727    205.75634    -3191.878   -2737.2955    750.09593    11926.055 
   37600    306.73026    205.76081   -3192.0271   -2735.7891     705.7866    11925.272 
   37650     290.6239    205.24484   -3174.8279   -2742.5468    1163.4743    11924.602 
   37700    330.35538    206.35918   -3211.9727   -2720.5941    169.71853    11924.167 
   37750    321.82202    206.16885   -3205.6283   -2726.9424    368.57609     11923.61 
   37800    306.58853    205.62857    -3187.619   -2731.5918    809.60157    11922.944 
   37850    306.86482    205.76594    -3192.198   -2735.7598     809.2688     11922.38 
   37900     292.2772    205.35084   -3178.3615   -2743.6213    1228.5063    11921.993 
   37950    302.44935    205.62914   -3187.6379   -2737.7674    1004.8446     11921.93 
   38000    296.70139    205.46415   -3182.1384   -2740.8176    1122.7249    11922.154 
   38050    311.34199     205.8953   -3196.5098   -2733.4122    623.32118    11922.647 
   38100    317.37024    206.01744   -3200.5812    -2728.517    406.16607    11923.192 
   38150    309.03662    205.74159   -3191.3862   -2731.7177    635.47913    11923.672 
   38200    297.39553    205.36965   -3178.9884   -2736.6351    944.76215    11924.206 
   38250    310.10204    205.79352   -3193.1175   -2731.8642    567.83282    11924.908 
   38300    313.09036     205.8345   -3194.4834   -2728.7852    511.95174    11925.638 
   38350    308.56828    205.77752   -3192.5842   -2733.6122    587.93078     11926.35 
   38400    297.93068    205.44733   -3181.5777   -2738.4284    880.16274    11927.114 
   38450    310.75979    205.92159   -3197.3862   -2735.1546    588.69832     11928.02 
   38500    299.27655    205.53798   -3184.5995   -2739.4483    923.53528    11928.996 
   38550    302.23545    205.63567   -3187.8556   -2738.3033    751.58677    11930.142 
   38600    310.21326    205.86351   -3195.4504   -2734.0317    432.30081    11931.394 
   38650    299.52975    205.52134   -3184.0448    -2738.517    770.09554    11932.622 
   38700    285.31983     205.0872   -3169.5735   -2745.1819    1133.0788    11933.976 
   38750    305.35167    205.78002   -3192.6673   -2738.4798    443.21791    11935.608 
   38800    303.73518    205.69286   -3189.7621   -2737.9791    452.38274    11937.228 
   38850    314.66965     206.0302   -3201.0066   -2732.9593    149.98956     11938.78 
   38900    314.67917    205.96799    -3198.933   -2730.8716    192.68601    11940.141 
   38950    285.15204      205.213   -3173.7666   -2749.6246    941.33763    11941.349 
   39000    296.79817    205.57653   -3185.8842   -2744.4194    634.57348    11942.729 
   39050    315.12107    206.18446   -3206.1488   -2737.4301     130.1076    11944.152 
   39100    311.02891    206.00924    -3200.308   -2737.6761    177.03654    11945.387 
   39150    306.57898    205.84016   -3194.6721   -2738.6591    233.99455    11946.434 
   39200    305.55097    205.69014   -3189.6713   -2735.1874    405.71901    11947.319 
   39250    296.01644    205.41849   -3180.6165   -2740.3144    758.52076    11948.143 
   39300    299.81998    205.62903   -3187.6345    -2741.675    540.52466    11949.062 
   39350    281.59858    205.09463   -3169.8209   -2750.9643    915.34431    11950.029 
   39400    302.64202     205.6791   -3189.3034   -2739.1463    382.90972    11951.137 
   39450    304.62919    205.81562   -3193.8542   -2740.7413    282.66072    11952.197 
   39500    296.80245     205.5575   -3185.2499   -2743.7787    516.51595    11953.143 
   39550    305.07719    205.74049   -3191.3495   -2737.5703    255.29703    11954.055 
   39600    298.95438     205.6453   -3188.1768   -2743.5048    343.96413    11954.834 
   39650    294.35586    205.54549   -3184.8496   -2747.0176    541.14607    11955.514 
   39700    288.27015    205.37139   -3179.0463   -2750.2663    625.95915    11956.208 
   39750    304.73607     205.9216   -3197.3866   -2744.1148    99.873895    11956.913 
   39800    285.35422    205.32383   -3177.4608   -2753.0181    566.40458    11957.458 
   39850    310.67276    206.04907   -3201.6357   -2739.5335   -125.51873     11957.95 
   39900    310.79308    206.00484   -3200.1615   -2737.8803   -198.14563    11958.135 
   39950    302.36656    205.76004   -3192.0012   -2742.2538    53.358865    11957.925 
   40000    291.43999    205.37175   -3179.0583   -2745.5634    405.59118    11957.481 
   40050    305.92766    205.83144   -3194.3812    -2739.337    66.248938    11956.936 
   40100    296.95553    205.53445   -3184.4815   -2742.7827     295.3088    11956.184 
   40150    301.50691    205.74218    -3191.406   -2742.9373    152.06446    11955.275 
   40200    296.29777    205.67522   -3189.1741   -2748.4536    299.15814    11954.182 
   40250    298.36893    205.68876   -3189.6252    -2745.824    305.37687    11952.959 
   40300    298.88528     205.7652   -3192.1734   -2747.6042    302.46216    11951.617 
   40350    302.00222    205.90591   -3196.8637   -2747.6583    226.68667    11950.144 
   40400    297.55383    205.82338   -3194.1125   -2751.5238    181.94086    11948.514 
   40450    301.69428    205.91786   -3197.2619   -2748.5145    76.956694    11946.686 
   40500    288.41035    205.56551   -3185.5171   -2756.5285    557.30458    11944.655 
   40550    283.62516     205.3931     -3179.77   -2757.8991    751.66944    11942.623 
   40600    295.12616    205.71691   -3190.5636   -2751.5858    490.71647    11940.687 
   40650    308.01427    206.04891   -3201.6303   -2743.4825    138.44174    11938.725 
   40700    297.39364     205.7374   -3191.2466   -2748.8961    371.99039     11936.58 
   40750    302.37358    205.96758   -3198.9195   -2749.1617    219.09084    11934.309 
   40800    297.59411     205.8487   -3194.9568   -2752.3081    349.75817    11931.887 
   40850    299.06303     205.9293   -3197.6434   -2752.8098    304.40086     11929.36 
   40900    293.65504    205.70165   -3190.0549   -2753.2653    488.78162     11926.73 
   40950    298.17626      205.905   -3196.8333   -2753.3187    459.76505    11924.043 
   41000    289.96788    205.71484   -3190.4947   -2759.1894     729.4597    11921.348 
   41050    311.32094    211.38088    -3212.696   -2749.6297    155.20885    11918.703 
   41100    296.94528    210.95576   -3198.5254   -2756.8418    460.09698     11915.92 
   41150    288.94259    210.70801   -3190.2668   -2760.4866     753.0694    11913.106 
   41200    288.56241    210.73814   -3191.2714   -2762.0566    834.43907    11910.422 
   41250    297.50385    210.96681   -3198.8937   -2756.3792    648.62722    11907.905 
   41300    293.88128    210.83884   -3194.6281    -2757.502    771.24264    11905.471 
   41350    297.14258    211.00654   -3200.2179   -2758.2408    610.00468    11903.158 
   41400    309.12795    211.43989   -3214.6631   -2754.8587    156.01673    11900.879 
   41450    284.21423    210.73686   -3191.2288   -2768.4817     831.9596    11898.468 
   41500    288.25106    210.88943   -3196.3142   -2767.5626    739.33486    11896.181 
   41550    286.28191    210.78758   -3192.9193   -2767.0967    838.36899     11894.04 
   41600    281.35813     210.7735   -3192.4499    -2773.951    989.76471     11892.07 
   41650    292.61957    211.06581   -3202.1937   -2766.9442    667.78514    11890.338 
   41700     295.9557     211.1937   -3206.4567    -2766.245    603.04123    11888.706 
   41750    281.29413    210.76823   -3192.2744   -2773.8707    1067.2437    11887.162 
   41800    289.31251    211.07311   -3202.4369   -2772.1064    796.26683    11885.866 
   41850    287.65306    211.10558   -3203.5194   -2775.6573     764.8953    11884.745 
   41900    286.15714    211.13791   -3204.5969   -2778.9598    737.67142     11883.78 
   41950      294.206    211.35958   -3211.9861    -2774.377    501.92342    11882.927 
   42000     280.5883     210.9036   -3196.7866   -2779.4328    912.32036    11882.114 
   42050    287.17758    211.05625    -3201.875   -2774.7201    824.59447    11881.495 
   42100    292.48052    211.21556   -3207.1853   -2772.1427    650.76457    11881.051 
   42150    285.30495    211.02563   -3200.8542   -2776.4847     856.1749     11880.71 
   42200     290.3231    211.25218   -3208.4059   -2776.5723    679.48105    11880.553 
   42250    295.26719    211.35396   -3211.7987   -2772.6111    454.90386    11880.499 
   42300    281.41234    210.97863   -3199.2877   -2780.7082    821.15554    11880.446 
   42350     287.6396    211.25558   -3208.5194   -2780.6773    634.20869    11880.538 
   42400    275.43514    210.89632   -3196.5439    -2786.855    878.16495    11880.769 
   42450    293.67239    211.41986   -3213.9955   -2777.1801     400.6628    11881.148 
   42500    291.14899    211.41245   -3213.7483   -2780.6862    474.63409    11881.517 
   42550    289.67536    211.38559   -3212.8529   -2781.9828    497.79948     11881.89 
   42600    292.44382    211.47923   -3215.9744   -2780.9864    422.36461    11882.257 
   42650    294.50014    211.50225   -3216.7416    -2778.695    386.38353    11882.583 
   42700    291.26509    211.33831    -3211.277   -2778.0422     510.4406    11882.865 
   42750    287.84954    211.25839   -3208.6131   -2780.4587    680.50095    11883.152 
   42800    270.59694       210.75   -3191.6667   -2789.1742    1060.0321    11883.571 
   42850    279.44098    211.01722   -3200.5741   -2784.9268    725.68201    11884.265 
   42900    278.45107    211.01199   -3200.3995   -2786.2247    709.07114    11885.122 
   42950     290.0182    211.35048   -3211.6825   -2780.3024    436.11217    11886.079 
   43000    291.67657    211.36759   -3212.2529   -2778.4061    400.99713    11887.031 
   43050    299.93108    211.65755   -3221.9183   -2775.7936    130.69975    11887.916 
   43100    290.22603    211.33431   -3211.1436   -2779.4544    352.86223    11888.638 
   43150    284.28607    211.17564   -3205.8546   -2783.0006    487.51407     11889.29 
   43200    276.45368    210.87623   -3195.8743   -2784.6704     714.2542     11889.96 
   43250     299.6865    211.59603   -3219.8677   -2774.1067    54.251257    11890.705 
   43300    292.66005    211.32206   -3210.7353   -2775.4257    378.40994     11891.27 
   43350    280.95391    210.90965   -3196.9883   -2779.0906     827.0766    11891.778 
   43400    290.89954    211.16888   -3205.6294   -2772.9384    546.55591    11892.438 
   43450    283.27559    211.01579   -3200.5263   -2779.1753    763.00594    11893.164 
   43500    298.41999    211.36931   -3212.3102   -2768.4331     410.1024    11894.007 
   43550    298.66169    211.27152   -3209.0506    -2764.814    373.57908    11894.832 
   43600    304.07483    211.47747   -3215.9158   -2763.6275    237.72515    11895.581 
   43650    291.92336    211.08352    -3202.784   -2768.5701    547.87182    11896.221 
   43700    288.03564    210.91838   -3197.2793   -2768.8481    666.61528    11896.881 
   43750    287.50341    210.82454   -3194.1513   -2766.5117    788.58269    11897.642 
   43800    287.89182    210.87669   -3195.8898   -2767.6725    786.76024     11898.56 
   43850    299.62162    211.16328   -3205.4427   -2759.7783    480.57274    11899.624 
   43900    297.41158    210.93322   -3197.7739   -2755.3967    660.98496    11900.711 
   43950    296.26346    210.85553   -3195.1845    -2754.515     792.2928    11901.879 
   44000    284.86403    210.41483   -3180.4944   -2756.7808    1194.4274    11903.234 
   44050    292.32524     210.6753   -3189.1768   -2754.3652    1009.6624    11904.935 
   44100    307.94835    211.09969   -3203.3228    -2745.273    592.98792    11906.903 
[...]
   89400    298.67743    195.70854   -3190.2846   -2746.0245    899.14712     11898.09 
   89450     315.8152    196.17931   -3205.9771    -2736.226     449.3344    11896.581 
   89500    320.91084    196.33748   -3211.2494   -2733.9188    426.64989    11895.016 
   89550    307.72194    196.04757   -3201.5856   -2743.8726    802.42238    11893.385 
   89600     306.6852    195.96438   -3198.8127   -2742.6417    864.73146    11891.844 
   89650    312.31269    196.14061   -3204.6871   -2740.1456    670.86755    11890.429 
   89700    314.85544    196.23808   -3207.9359   -2739.6123    621.52591    11889.072 
   89750    306.46007    195.97654   -3199.2181   -2743.3819    901.46275    11887.752 
   89800    304.98149    196.02579   -3200.8598    -2747.223    879.43986    11886.575 
   89850    314.25932    196.31725   -3210.5751   -2743.1382    580.42661    11885.536 
   89900    325.28284    196.58358   -3219.4526    -2735.619    377.95678    11884.474 
   89950    305.29874    196.04763   -3201.5878    -2747.479    901.96873    11883.327 
   90000    293.66365    195.85632   -3195.2107   -2758.4083    1088.8752    11882.328 
   90050    313.78358    196.49194    -3216.398   -2749.6687    520.49416    11881.541 
   90100    315.02194    196.46757   -3215.5857   -2747.0144    493.25687    11880.751 
   90150    306.56404     196.2473   -3208.2434   -2752.2526    770.15333    11879.909 
   90200    309.31813    196.35201   -3211.7336   -2751.6463    661.81596    11879.139 
   90250    309.87373    196.43246   -3214.4153   -2753.5017    573.79934    11878.408 
   90300    299.97182     196.2991   -3209.9699   -2763.7846    713.33836    11877.666 
   90350    300.11342    196.30508   -3210.1695   -2763.7735    679.33128    11876.972 
   90400    286.76575    195.98653    -3199.551   -2773.0087    982.74985    11876.351 
   90450    300.15325    196.38666   -3212.8887   -2766.4335    633.00414    11875.902 
   90500    300.44978    196.42455   -3214.1517   -2767.2554    571.42965    11875.502 
   90550    301.62394    196.46328   -3215.4427   -2766.7999    464.65225    11875.079 
   90600    292.82884    196.31896   -3210.6321   -2775.0714    556.91489    11874.598 
   90650    296.51263    196.48016   -3216.0053   -2774.9652    406.16617    11874.105 
   90700     316.8693    197.00033   -3233.3445   -2762.0254    -126.1791    11873.492 
   90750    303.03655    196.63001   -3221.0004   -2770.2564    285.81583    11872.559 
   90800     288.1891    196.22701   -3207.5672   -2778.9077    680.74904    11871.476 
   90850    289.19109    196.46449    -3215.483   -2785.3332    551.73566    11870.424 
   90900    292.65018     196.5938   -3219.7932   -2784.4982    404.14351    11869.369 
   90950    299.54287     196.8376   -3227.9202   -2782.3728    213.78327    11868.215 
   91000    290.38117    196.55425    -3218.475    -2786.555    403.42967    11866.914 
   91050     293.9669    196.67334   -3222.4446   -2785.1911     309.8468    11865.506 
   91100    299.65003    196.87601   -3229.2004   -2783.4937    165.81408    11863.952 
   91150    295.47658    196.85612   -3228.5375   -2789.0384    192.46327    11862.211 
   91200    293.23758    196.76078   -3225.3592   -2789.1906    381.39939    11860.299 
   91250    298.47216    196.95374   -3231.7914   -2787.8367    313.19734    11858.285 
   91300     292.8819    196.78137   -3226.0457    -2790.406    396.66424    11856.166 
   91350    287.58433    196.68686   -3222.8953   -2795.1354    525.51293    11853.973 
   91400    297.81068     196.8986   -3229.9534   -2786.9826    330.82327    11851.763 
   91450    295.24314     196.7792   -3225.9732   -2786.8214    399.63662    11849.454 
   91500    284.34819    196.52513   -3217.5042   -2794.5578    700.97113    11847.064 
   91550    278.21897    196.36008   -3212.0028   -2798.1731    896.85913    11844.769 
   91600    290.08859     196.7145   -3223.8166   -2792.3318    652.74209    11842.645 
   91650    294.32793    196.88045   -3229.3485    -2791.558    543.09623    11840.582 
   91700    286.44491    196.72976   -3224.3254   -2798.2604    739.57675    11838.532 
   91750     295.4662     197.0448   -3234.8268   -2795.3432    438.02265    11836.554 
   91800    300.19836    197.07617   -3235.8725   -2789.3502    364.53805    11834.532 
   91850    285.50919    196.72334   -3224.1114   -2799.4381    793.83102    11832.444 
   91900    292.83971    196.98616   -3232.8721   -2797.2953    630.54789    11830.448 
   91950    289.54318    196.90481   -3230.1603   -2799.4868    635.87365    11828.511 
   92000    297.74813    197.11234   -3237.0779   -2794.2001    461.99545    11826.599 
   92050    292.60385    196.88051   -3229.3502   -2794.1241    666.15857     11824.67 
   92100     298.2708    197.08674   -3236.2246   -2792.5694    479.73754    11822.778 
   92150    287.57558     196.7659   -3225.5301   -2797.7832    782.28609    11820.874 
   92200    290.93998    196.79228   -3226.4093   -2793.6582    823.25358    11819.066 
   92250    288.64586    196.76181   -3225.3936   -2796.0548    929.13263    11817.415 
   92300    303.45913    197.11244   -3237.0814   -2785.7089     594.5393    11815.941 
   92350    304.78253    197.15062    -3238.354   -2785.0131    550.40149    11814.497 
   92400    293.54103    196.80147   -3226.7157   -2790.0956     960.2639    11813.056 
   92450    286.68525    196.58799   -3219.5996    -2793.177    1263.3465    11811.815 
   92500    288.98119    196.65592    -3221.864   -2792.0264    1234.6255    11810.933 
   92550    289.00929    196.63202   -3221.0673   -2791.1878    1142.5577    11810.407 
   92600    303.62777    197.09609   -3236.5364   -2784.9131    712.68679    11810.142 
   92650    292.12405    196.75989   -3225.3298   -2790.8174    988.46007    11809.978 
   92700     296.5997     196.9064   -3230.2132   -2789.0437    815.04256    11809.996 
   92750    296.82411    196.88002    -3229.334   -2787.8306    803.56284    11810.137 
   92800    293.07471    196.70466   -3223.4888   -2787.5623    952.40196    11810.415 
   92850    315.38478    197.37351   -3245.7836   -2776.6727    416.83347    11810.841 
   92900    300.25303    196.95345   -3231.7817    -2785.178    818.11277    11811.207 
   92950    297.18967    196.86073   -3228.6909   -2786.6438     949.7973     11811.66 
   93000    301.56348    196.91346   -3230.4486   -2781.8958    892.35792     11812.29 
   93050    278.30398    196.26451    -3208.817   -2794.8609    1437.5946    11813.105 
   93100    291.00971    196.57778   -3219.2592   -2786.4043    1081.0218    11814.317 
   93150    304.94787    196.92698   -3230.8994   -2777.3126    698.77111    11815.776 
   93200    297.27577    196.69519    -3223.173   -2780.9978    953.16077    11817.298 
   93250    291.95958    196.52405   -3217.4683   -2783.2005     1164.181    11819.003 
   93300    302.06605    196.73871   -3224.6236   -2775.3233    916.10978    11820.958 
   93350    308.99606    196.84748   -3228.2494   -2768.6411    712.55698    11823.061 
   93400    297.86868    196.49076   -3216.3587   -2773.3016    1004.6663     11825.23 
   93450    287.69811     196.2388   -3207.9601    -2780.031    1263.8321    11827.601 
   93500    305.81963    196.74692   -3224.8974   -2770.0139    790.34494    11830.264 
   93550    312.71582     196.8982   -3229.9401   -2764.7991    619.83845    11833.012 
   93600    318.53185    196.99075   -3233.0249   -2759.2329    533.04981    11835.739 
   93650    302.55473    196.49915   -3216.6384   -2766.6112     974.6675    11838.426 
   93700    292.85031     196.1625   -3205.4168   -2769.8241    1255.6766    11841.269 
   93750    298.18814    196.26828   -3208.9426   -2765.4104    1161.2281    11844.413 
   93800    306.60844    196.53355   -3217.7851   -2761.7283    945.36645    11847.817 
   93850    307.25759    196.48897    -3216.299   -2759.2766    883.50871    11851.375 
   93900    321.37699     196.8031     -3226.77   -2748.7461    493.01637    11855.022 
   93950    309.96926    196.54217   -3218.0723   -2757.0165     810.4004    11858.619 
   94000    304.29853     196.3304   -3211.0133   -2758.3923    1011.7531    11862.274 
   94050    291.85091    195.96994   -3198.9981    -2764.892    1222.6521    11866.116 
   94100    298.03006    196.08578   -3202.8594   -2759.5623    1056.3343    11870.237 
   94150    308.68241    196.39356   -3213.1185   -2753.9768     756.9242    11874.562 
   94200     311.4125    196.39547   -3213.1823   -2749.9798    638.87109     11878.94 
   94250    317.84209    196.63706   -3221.2352   -2748.4692    370.92658    11883.286 
   94300    320.86826    196.64307   -3221.4358   -2744.1685    370.61126    11887.472 
   94350    303.27144    196.06239   -3202.0798   -2750.9865    776.17025    11891.525 
   94400    306.90108    196.15042   -3205.0139   -2748.5218    661.80868    11895.598 
   94450    308.50032     196.1013   -3203.3766   -2744.5058    667.91556    11899.689 
   94500    318.52388    196.34182   -3211.3939   -2737.6138    346.29564    11903.763 
   94550    309.25508    196.15974   -3205.3247   -2745.3312    507.81461    11907.672 
   94600    309.17903     196.1065   -3203.5499   -2743.6695    469.49748    11911.483 
   94650    302.95256    195.97735    -3199.245   -2748.6261    565.83599     11915.22 
   94700    304.14974    196.02196   -3200.7319   -2748.3322     493.6814    11918.897 
   94750    303.10271     195.9739   -3199.1301   -2748.2878    472.78864    11922.495 
   94800    314.10762    196.31316   -3210.4388   -2743.2275     123.6482    11925.967 
   94850    300.30256      195.946   -3198.2001   -2751.5228    444.55462    11929.197 
   94900    300.11791    195.91375    -3197.125   -2750.7224    424.44692    11932.305 
   94950    307.93138    196.05898    -3201.966   -2743.9414    173.81013    11935.302 
   95000    314.92998    196.25188   -3208.3961   -2739.9616    -52.43244    11938.042 
   95050    306.38748    196.03326   -3201.1087   -2745.3806    139.64999    11940.428 
   95100    293.33365    195.59805   -3186.6016     -2750.29    482.95092    11942.578 
   95150    302.56489    195.91751   -3197.2504   -2747.2081    203.66856    11944.628 
   95200    312.74626    196.15028   -3205.0093    -2739.823    2.2400962    11946.466 
   95250    299.66379     195.7459     -3191.53   -2745.8028    344.33859    11948.005 
   95300    310.44169    196.01741   -3200.5803   -2738.8218    32.584728    11949.362 
   95350    299.63116    195.77098   -3192.3659   -2746.6873     238.1167    11950.455 
   95400    303.95754    195.92644   -3197.5479   -2745.4341    150.14898    11951.335 
   95450    314.12748    196.16224   -3205.4081   -2738.1673   -108.22787    11951.956 
   95500    309.75995    196.12583   -3204.1942   -2743.4498   -57.195351     11952.22 
   95550    306.54413    195.99047   -3199.6823   -2743.7212    55.572562    11952.142 
   95600    298.53288    195.77976   -3192.6585   -2748.6135    272.93127    11951.788 
   95650    308.07772      196.105   -3203.4999   -2745.2577    37.538474    11951.236 
   95700    305.23328    196.03912    -3201.304   -2747.2927    106.68429    11950.431 
   95750    308.74246    196.19173   -3206.3909   -2747.1599   -43.501796    11949.373 
   95800     310.0537    196.20012   -3206.6708   -2745.4894   -42.413373    11947.991 
   95850    311.76877    196.21178   -3207.0594    -2743.327     -48.5491    11946.279 
   95900    298.06117    195.81192   -3193.7306   -2750.3872     217.6916    11944.267 
   95950    311.90978    196.25789   -3208.5963   -2744.6541   -127.28924     11942.03 
   96000    296.35967    195.79477    -3193.159   -2752.3465    386.86657    11939.477 
   96050    307.72395    196.17713   -3205.9044   -2748.1883    134.61712     11936.79 
   96100    296.54321    195.85459   -3195.1531   -2754.0675    397.83476     11933.93 
   96150    300.54176     195.9532   -3198.4401    -2751.407    327.93567    11930.949 
   96200    290.14124     195.8108   -3193.6932   -2762.1301    523.38941    11927.882 
   96250    292.44107    195.89398    -3196.466    -2761.482    472.42333    11924.786 
   96300    301.98117    196.11774   -3203.9247   -2754.7506    294.00953    11921.659 
   96350    323.41364    196.73824   -3224.6078   -2743.5546   -236.54901    11918.393 
   96400    300.64773    196.14738   -3204.9127    -2757.722     366.4347    11914.767 
   96450    297.40687    196.13698   -3204.5659   -2762.1957    453.46673    11911.016 
   96500    299.08105    196.26767   -3208.9222   -2764.0618    383.99674    11907.229 
   96550    299.33638     196.2144   -3207.1466   -2761.9065    385.04863    11903.376 
   96600     303.3958    196.43998   -3214.6659   -2763.3876     211.4704    11899.433 
   96650    293.33145    196.26433   -3208.8109   -2772.5026    456.70533    11895.342 
   96700    285.53453    196.00978   -3200.3262   -2775.6152    735.48555     11891.24 
   96750    304.45115    196.62911   -3220.9703   -2768.1223    227.66462     11887.21 
   96800    305.82804    196.64308   -3221.4361   -2766.5401    140.49269    11883.064 
   96850    299.46126    196.50256   -3216.7521   -2771.3262    347.91025    11878.717 
   96900    289.49675    196.21706   -3207.2352   -2776.6307    675.47227    11874.296 
   96950     293.0469    196.44635   -3214.8785   -2778.9934    511.34697    11869.958 
   97000    305.31521    196.84802   -3228.2673   -2774.1341    226.52553    11865.611 
   97050    289.81813    196.49623   -3216.5409   -2785.4584    668.06514    11861.143 
   97100    293.06442    196.60575   -3220.1915   -2784.2804    593.09394    11856.725 
   97150    295.44761    196.59876   -3219.9587   -2780.5028    565.87483     11852.36 
   97200    297.03217    196.68066   -3222.6887   -2780.8759    619.25539    11848.029 
   97250    294.76719    196.78312   -3226.1039   -2787.6601    655.68868    11843.761 
   97300    294.62545    196.77681   -3225.8936   -2787.6606    688.95189    11839.557 
   97350    305.46985    197.08725   -3236.2418   -2781.8785    426.68608    11835.428 
   97400    295.21904    196.78044   -3226.0147   -2786.8988    672.82671    11831.281 
   97450    293.28149    196.82197   -3227.3991   -2791.1652    707.89299     11827.17 
   97500      285.955    196.62407   -3220.8022   -2795.4658    838.43434    11823.178 
   97550    305.55938    197.18275   -3239.4248   -2784.9284    332.07256    11819.317 
   97600    293.86546    196.87619   -3229.2062   -2792.1036    662.24285    11815.396 
   97650    295.87656    197.02842   -3234.2808   -2794.1868    678.53074    11811.525 
   97700    302.17935    197.18441   -3239.4804   -2790.0115     641.6561    11807.725 
   97750    290.34577    196.88643   -3229.5478   -2797.6804    968.29418    11804.007 
   97800    294.93121    197.10813   -3236.9376   -2798.2498    805.48155    11800.484 
   97850    287.62281    196.89664   -3229.8879   -2802.0708    996.92385    11797.134 
   97900    290.90906    197.06892   -3235.6305   -2802.9253    973.28035    11794.017 
   97950    293.84745    197.09138   -3236.3795   -2799.3036    961.23741    11791.137 
   98000    310.89762    197.60771   -3253.5905   -2791.1538    512.07615     11788.45 
   98050    292.21555    197.03713   -3234.5711   -2799.9226    1036.8735    11785.779 
   98100    295.71356     197.0954   -3236.5135    -2796.662    939.73831    11783.332 
   98150    294.11582    197.12282   -3237.4274   -2799.9525    978.06356    11781.092 
   98200    285.04924    196.86645   -3228.8815   -2804.8924    1223.8681     11779.08 
   98250     287.2641    196.88777   -3229.5924   -2802.3088    1216.7615    11777.408 
   98300    290.96025    197.07686   -3235.8954   -2803.1141    1171.5819    11776.068 
   98350    295.52077    197.18797   -3239.5989   -2800.0342    1065.2522    11775.042 
   98400    292.20911    197.12282   -3237.4274   -2802.7885    1167.2365    11774.275 
   98450    292.25493    197.11561    -3237.187   -2802.4799    1146.7716    11773.808 
   98500    303.79806    197.44942   -3248.3141   -2796.4376    788.95661    11773.605 
   98550    279.46307     196.7191   -3223.9699   -2808.2897     1398.171    11773.563 
   98600    284.86229    196.87379   -3229.1264   -2805.4153     1232.706    11773.904 
   98650    311.21832    197.63375   -3254.4583   -2791.5446    555.68791    11774.559 
   98700    298.29715    197.24575    -3241.525   -2797.8306    976.77195    11775.242 
   98750    299.86816    197.27565   -3242.5217   -2796.4906     994.8362    11776.084 
   98800    298.04817    197.25332   -3241.7772   -2798.4532    1009.1579    11777.122 
   98850    295.45094    197.20043   -3240.0142   -2800.5534    1074.1528    11778.361 
   98900    292.31379    197.09949   -3236.6495   -2801.8549    1158.6701    11779.847 
   98950    292.33674     197.1374   -3237.9135   -2803.0847    1068.7552    11781.614 
   99000     292.3276    197.10999   -3236.9996   -2802.1844    969.59706    11783.613 
   99050    283.77417     196.9059   -3230.1967   -2808.1041    1101.0358    11785.818 
   99100    278.57085    196.76241   -3225.4138   -2811.0607    1214.4245    11788.284 
   99150    291.29546    197.04999   -3234.9997   -2801.7198    887.92833     11791.04 
   99200    295.97815    197.10746   -3236.9154   -2796.6704    792.59771    11793.941 
   99250    291.57981    196.97276   -3232.4254   -2798.7226    933.12075    11796.947 
   99300    294.13022    197.05155   -3235.0515   -2797.5551    858.72858     11800.11 
   99350    300.60867    197.19616    -3239.872   -2792.7394    728.08062    11803.379 
   99400    294.15192     196.9922   -3233.0735   -2795.5448    820.17625    11806.727 
   99450     309.2626    197.39451   -3246.4838   -2786.4791    371.45678    11810.126 
   99500    290.66916    196.83283   -3227.7609   -2795.4126    832.61766    11813.443 
   99550    291.87067     196.8381   -3227.9366   -2793.8011    782.44346    11816.846 
   99600    283.14552    196.62166   -3220.7219   -2799.5644    988.02467    11820.351 
   99650    292.20148    196.94617   -3231.5391   -2796.9115    730.17901    11824.017 
   99700    304.13445    197.21668   -3240.5562   -2788.1792     332.0851    11827.736 
   99750    300.28498    197.06967   -3235.6556   -2789.0045    374.28208    11831.313 
   99800    289.08349    196.63695   -3221.2316   -2791.2418    684.53059    11834.784 
   99850    292.69514    196.67819   -3222.6064   -2787.2446    659.74891    11838.269 
   99900     289.7791    196.62551   -3220.8503   -2789.8258    844.10534    11841.779 
   99950    291.14196    196.55368   -3218.4559   -2785.4043    826.82258    11845.411 
  100000    294.78691    196.62749   -3220.9165   -2782.4433    681.28473    11849.141 
Loop time of 27.019 on 1 procs for 100000 steps with 500 atoms

Performance: 319.775 ns/day, 0.075 hours/ns, 3701.104 timesteps/s
99.8% CPU use with 1 MPI tasks x 1 OpenMP threads

MPI task timing breakdown:
Section |  min time  |  avg time  |  max time  |%varavg| %total
---------------------------------------------------------------
Pair    | 22.197     | 22.197     | 22.197     |   0.0 | 82.15
Bond    | 0.0068669  | 0.0068669  | 0.0068669  |   0.0 |  0.03
Neigh   | 0.48867    | 0.48867    | 0.48867    |   0.0 |  1.81
Comm    | 0.78076    | 0.78076    | 0.78076    |   0.0 |  2.89
Output  | 0.018246   | 0.018246   | 0.018246   |   0.0 |  0.07
Modify  | 2.7422     | 2.7422     | 2.7422     |   0.0 | 10.15
Other   |            | 0.7856     |            |       |  2.91

Nlocal:    500 ave 500 max 500 min
Histogram: 1 0 0 0 0 0 0 0 0 0
Nghost:    1599 ave 1599 max 1599 min
Histogram: 1 0 0 0 0 0 0 0 0 0
Neighs:    14651 ave 14651 max 14651 min
Histogram: 1 0 0 0 0 0 0 0 0 0

Total # of neighbors = 14651
Ave neighs/atom = 29.302
Ave special neighs/atom = 0
Neighbor list builds = 585
Dangerous builds = 0

write_data      ${walker}/final_restart_file
write_data      5/final_restart_file

quit
