LAMMPS (19 May 2017)
Processor partition = 5
  using 1 OpenMP thread(s) per MPI task
# gREM variables
variable        lambda world 1000 1005 1010 1015 1020 1025 1030 1035 1040 1045 1050 1055 1060 1065 1070 1075
variable        walker world 0 1 2 3 4 5 6 7 8 9 10 11 12 13 14 15
variable        replica world 4 9 1 7 0 12 3 5 8 13 14 6 15 11 2 10

variable        T0 equal 300.0
variable        press equal 0.0

units           real
atom_style      full
pair_style      lj/cut 5.0

# LJ particles
read_data       ${walker}/restart_file
read_data       5/restart_file
  orthogonal box = (0.966236 0.966236 0.966236) to (24.0338 24.0338 24.0338)
  1 by 1 by 1 MPI processor grid
  reading atoms ...
  500 atoms
  reading velocities ...
  500 velocities
  0 = max # of 1-2 neighbors
  0 = max # of 1-3 neighbors
  0 = max # of 1-4 neighbors
  1 = max # of special neighbors

#dump            dump all xyz 1000 ${walker}/dump.xyz

fix             fxnpt all npt temp ${T0} ${T0} 1000.0 iso ${press} ${press} 10000.0
fix             fxnpt all npt temp 300 ${T0} 1000.0 iso ${press} ${press} 10000.0
fix             fxnpt all npt temp 300 300 1000.0 iso ${press} ${press} 10000.0
fix             fxnpt all npt temp 300 300 1000.0 iso 0 ${press} 10000.0
fix             fxnpt all npt temp 300 300 1000.0 iso 0 0 10000.0
fix             fxgREM all grem ${lambda} -.03 -30000 fxnpt
fix             fxgREM all grem 1025 -.03 -30000 fxnpt
thermo_modify   press fxgREM_press

thermo          50
thermo_style    custom step temp f_fxgREM pe etotal press vol
WARNING: New thermo_style command, previous thermo_modify settings will be lost (../output.cpp:705)
timestep        1.0

temper/grem     100000 1000 ${lambda} fxgREM fxnpt 10294 98392 ${walker}
temper/grem     100000 1000 1025 fxgREM fxnpt 10294 98392 ${walker}
temper/grem     100000 1000 1025 fxgREM fxnpt 10294 98392 5
Neighbor list info ...
  update every 1 steps, delay 10 steps, check yes
  max neighbors/atom: 2000, page size: 100000
  master list distance cutoff = 7
  ghost atom cutoff = 7
  binsize = 3.5, bins = 7 7 7
  1 neighbor lists, perpetual/occasional/extra = 1 0 0
  (1) pair lj/cut, perpetual
      attributes: half, newton on
      pair build: half/bin/newton
      stencil: half/bin/3d/newton
      bin: standard
Per MPI rank memory allocation (min/avg/max) = 5.722 | 5.722 | 5.722 Mbytes
Step Temp f_fxgREM PotEng TotEng Press Volume 
       0    280.25002    217.28084   -3076.0281   -2659.1775    137.94754    12274.482 
      50    305.71918    218.01349   -3100.4496   -2645.7155   -552.85194    12274.384 
     100    318.63961    218.42047   -3114.0157   -2640.0634   -881.85274    12273.753 
     150    304.66709    218.08006   -3102.6686   -2649.4994   -314.40887    12272.408 
     200    296.72284    217.80195   -3093.3982   -2652.0455    51.145577    12270.634 
     250    303.85258    217.97256   -3099.0852   -2647.1275    -193.1065    12268.618 
     300    321.93548    218.61181   -3120.3935   -2641.5389   -782.66791    12266.206 
     350    309.48735        218.2   -3106.6666   -2646.3276   -466.85088    12263.151 
     400     302.2739    217.97558   -3099.1861   -2649.5765   -298.65269    12259.573 
     450    306.44674    218.17293   -3105.7642   -2649.9479    -352.5699    12255.555 
     500    296.69262    217.91518   -3097.1728    -2655.865    3.9311423    12251.116 
     550    307.11134    218.27644   -3109.2148     -2652.41   -241.79403    12246.391 
     600    302.41528    218.10898   -3103.6327   -2653.8129   -96.074975    12241.316 
     650    310.21116     218.3686   -3112.2867   -2650.8711   -297.04335    12235.899 
     700    307.10141    218.22848   -3107.6159   -2650.8259   -191.68877    12230.097 
     750     309.4306    218.40162   -3113.3874   -2653.1328   -238.27084    12223.928 
     800    298.05029    218.05537   -3101.8457   -2658.5185     126.2647    12217.411 
     850    322.64551    218.84472   -3128.1574   -2648.2467   -508.19625    12210.646 
     900    310.74142    218.45699   -3115.2331   -2653.0288   -151.34772    12203.418 
     950     308.3383    218.47048   -3115.6826   -2657.0527   -42.684501    12195.836 
    1000    313.41194    218.69463   -3123.1545    -2656.978   -100.36915    12187.977 
    1050    313.54527    218.72726   -3124.2419   -2657.8671   -4.4668494    12179.817 
    1100    306.83886     218.6182   -3120.6067   -2664.2072    214.09859    12171.422 
    1150     314.5381    218.84753   -3128.2509   -2660.3993    73.040051     12162.88 
    1200     310.7841    218.79491   -3126.4969   -2664.2291    144.15382    12154.152 
    1250    313.58422    218.98022   -3132.6741   -2666.2413     62.36978    12145.241 
    1300    304.71579    218.71772   -3123.9239   -2670.6823    385.49484     12136.13 
    1350    313.79127    219.09604   -3136.5346   -2669.7939    155.82279    12126.951 
    1400     299.1817    218.67094   -3122.3646   -2677.3545    649.10493     12117.68 
    1450    299.97869    218.76059   -3125.3529   -2679.1574    730.56091    12108.492 
    1500    313.63954    219.26101   -3142.0335   -2675.5185    366.99417    12099.436 
    1550    295.94869    218.76393   -3125.4643    -2685.263    813.13628    12090.399 
    1600    322.89112    219.69805   -3156.6017   -2676.3257    55.707613     12081.49 
    1650    311.83398     219.3667   -3145.5567   -2681.7273    429.64427    12072.445 
    1700    300.50085     219.1859   -3139.5301   -2692.5579    808.15504    12063.378 
    1750    306.03319    219.31527   -3143.8422   -2688.6411    713.55859    12054.488 
    1800    308.77908    219.41503   -3147.1676   -2687.8821    725.01887    12045.749 
    1850    310.92121    219.58694   -3152.8981   -2690.4264    804.83409    12037.162 
    1900    295.58132    219.19871    -3139.957   -2700.3021    1224.2533    12028.808 
    1950    323.39407    220.13429   -3171.1429   -2690.1187    413.82199    12020.792 
    2000    293.50922    219.26197   -3142.0656   -2705.4928    1239.8644    12012.867 
    2050    306.82787    219.81738   -3160.5795   -2704.1963    975.39891    12005.274 
    2100    292.08573    219.25964   -3141.9881   -2707.5328    1462.4555    11998.035 
    2150    300.30011    219.47754   -3149.2514   -2702.5777    1398.2656      11991.3 
    2200    292.30612    219.27371    -3142.457   -2707.6738    1723.2922    11985.102 
    2250    309.03695     219.8348   -3161.1601    -2701.491    1308.6715    11979.532 
    2300     305.2877    219.67187   -3155.7289   -2701.6365    1425.8085    11974.461 
    2350    295.65214    219.39341   -3146.4471   -2706.6869    1774.1408    11969.913 
    2400    303.90088    219.72452    -3157.484   -2705.4545     1517.652    11966.036 
    2450    312.40274    219.93838   -3164.6127   -2699.9373    1318.8671    11962.735 
    2500    306.81576    219.80321   -3160.1069   -2703.7417    1528.0735     11959.89 
    2550    305.09461    219.76983   -3158.9942   -2705.1891    1558.9986    11957.603 
    2600    310.88965    220.12155   -3170.7182   -2708.2934     1388.882    11955.875 
    2650    295.81571    219.67194   -3155.7312   -2715.7278     1791.565    11954.667 
    2700    299.10239    219.88115   -3162.7049   -2717.8127    1533.5598    11954.119 
    2750    303.03557    219.89411   -3163.1369   -2712.3945    1408.7018    11954.142 
    2800    312.41575    220.15687   -3171.8956   -2707.2009    1206.0821    11954.665 
    2850    301.61371    219.90624   -3163.5414   -2714.9138    1420.1878    11955.605 
    2900    308.24701    220.18317   -3172.7722   -2714.2781    1056.6859    11956.995 
    2950    304.03466    219.94475   -3164.8248   -2712.5963    1206.4614    11958.696 
    3000    292.49386    219.58059   -3152.6863   -2717.6239    1486.5224    11960.801 
    3050    313.15361     215.2256   -3174.1865   -2708.3943     825.4063    11963.397 
    3100    316.56441    215.34473   -3178.1578   -2707.2922    670.92143    11966.196 
    3150    297.02473    214.69596   -3156.5321   -2714.7303    1186.2249    11969.124 
    3200     306.4943    215.11655   -3170.5518   -2714.6648    872.17298    11972.357 
    3250    312.50672    215.37281   -3179.0937   -2714.2637    714.87903    11975.789 
    3300    296.87476    214.91029   -3163.6764   -2722.0977    1149.5217    11979.362 
    3350    285.13655    214.59963    -3153.321    -2729.202    1415.0813    11983.277 
    3400    290.75733    214.77423    -3159.141   -2726.6615    1184.8281    11987.666 
    3450    303.59908    215.15081   -3171.6937   -2720.1131    783.24847    11992.424 
    3500    303.08473    215.13207    -3171.069   -2720.2534    657.49204    11997.352 
    3550    298.99744    215.01882   -3167.2939   -2722.5579    557.54181    12002.368 
    3600     298.3672    214.96827    -3165.609   -2721.8104    512.05982    12007.425 
    3650    296.34186    214.85292   -3161.7641    -2720.978     536.1479     12012.51 
    3700    297.76921    214.93024   -3164.3415   -2721.4324    387.94977    12017.605 
    3750    301.49842    215.00973    -3166.991   -2718.5349    228.37669     12022.65 
    3800    291.51178    214.80056   -3160.0185   -2726.4168    421.48758    12027.576 
    3850    293.64069    214.89869   -3163.2896   -2726.5213    244.47547    12032.447 
    3900    304.90161    215.20089   -3173.3628   -2719.8448   -203.52039     12037.19 
    3950    295.48521    214.93667   -3164.5556   -2725.0438    2.5801505    12041.601 
    4000    296.88821    214.99472   -3166.4907    -2724.892    -82.31783    12045.732 
    4050    290.06922    214.74989   -3158.3298   -2726.8738    80.416155    12049.588 
    4100    282.66048    214.59146   -3153.0486   -2732.6126    190.32858    12053.247 
    4150    290.57026    214.87614   -3162.5381   -2730.3369   -190.95407     12056.75 
    4200     283.8985    214.49662   -3149.8874   -2727.6099    26.403568    12059.923 
    4250    267.88894    213.97532   -3132.5107   -2734.0462    529.74883    12062.891 
    4300    291.53256    214.77313   -3159.1044   -2725.4718   -101.14104    12065.841 
    4350    310.23356    215.36213   -3178.7377   -2717.2888   -650.64056    12068.487 
    4400    306.56072    215.26793   -3175.5976   -2719.6118   -601.13147    12070.565 
    4450    288.64041    214.84569   -3161.5231   -2732.1923   -225.03906    12072.072 
    4500     278.3159    214.51181   -3150.3935   -2736.4197    100.34462    12073.208 
    4550    288.45014     214.7297   -3157.6565   -2728.6088   -92.271273    12074.124 
    4600    301.73731    215.09803   -3169.9344    -2721.123   -473.65771    12074.732 
    4650    300.96207    215.06789   -3168.9295   -2721.2713   -446.51044    12074.871 
    4700     293.9179    214.89281   -3163.0938   -2725.9132   -253.54451    12074.519 
    4750    279.81163    214.45997   -3148.6656    -2732.467    138.07177    12073.797 
    4800    289.49584    214.79553    -3159.851   -2729.2479   -62.205182    12072.877 
    4850    287.01553    214.59433   -3153.1444   -2726.2305    72.733318    12071.701 
    4900    298.53563    214.95253   -3165.0844   -2721.0353   -277.41315    12070.275 
    4950    283.34531    214.49945   -3149.9818   -2728.5271    73.484817    12068.493 
    5000    299.29742    214.99142   -3166.3805   -2721.1983   -346.07893    12066.456 
    5050    290.34698    219.69394   -3156.4647   -2724.5955   -23.399927    12064.035 
    5100     297.4526    219.84922   -3161.6406   -2719.2024   -23.958814    12061.325 
    5150    285.01555    219.45801   -3148.6002   -2724.6612     343.7014    12058.407 
    5200    284.10669    219.42497   -3147.4991   -2724.9119    400.57676     12055.41 
    5250    289.63016    219.57424   -3152.4745   -2721.6716    288.28284      12052.4 
    5300    298.46169    219.83183   -3161.0611    -2717.122    127.90831    12049.306 
    5350     296.0963    219.69325   -3156.4417   -2716.0209    262.91716    12046.059 
    5400    292.22853    219.59823   -3153.2742   -2718.6064    436.02723    12042.721 
    5450    298.38386    219.61473   -3153.8245   -2710.0011    391.57677    12039.387 
    5500    306.49834     219.8971   -3163.2365   -2707.3435    241.06466    12036.007 
    5550    288.26918    219.26817   -3142.2725   -2713.4939    858.25552    12032.562 
    5600    301.44219    219.69801   -3156.6003   -2708.2278    564.77786    12029.286 
    5650    294.59082    219.38523   -3146.1743   -2707.9928    858.69344    12026.114 
    5700    300.88095    219.50078   -3150.0261   -2702.4885    756.49197    12023.148 
    5750    310.09219    219.79291   -3159.7636    -2698.525    559.50313    12020.342 
    5800    300.31839    219.47057    -3149.019   -2702.3181    985.12828    12017.616 
    5850    300.24889    219.45524   -3148.5079   -2701.9105    1041.9824    12015.156 
    5900    308.35519    219.56084    -3152.028   -2693.3731    899.88756    12012.991 
    5950    311.61071    219.62489   -3154.1631   -2690.6658    808.30229     12011.07 
    6000    313.04766    219.68313   -3156.1042   -2690.4696    857.74587    12009.335 
    6050    292.32878    223.98749   -3132.9164   -2698.0995    1536.8373     12007.86 
    6100    307.18121    224.45217   -3148.4055   -2691.4967    1147.5467    12006.901 
    6150    309.29367    224.49786   -3149.9288   -2689.8779    1139.2033    12006.335 
    6200    304.12961    224.32755   -3144.2517   -2691.8819    1256.4081    12006.144 
    6250    306.80199    224.42547   -3147.5157    -2691.171    1109.5105    12006.372 
    6300    307.58725    224.46705   -3148.9018   -2691.3891    1153.4905    12006.976 
    6350    313.39456    224.58827   -3152.9424   -2686.7918    1034.3581    12007.951 
    6400    302.33894    224.06335   -3135.4451   -2685.7389    1405.0964    12009.278 
    6450    306.08842    224.18079   -3139.3596   -2684.0763    1317.6189    12011.091 
    6500    306.62058    224.22066   -3140.6887   -2684.6138    1292.8762    12013.381 
    6550      309.731    224.38831    -3146.277   -2685.5756    1196.2918    12016.117 
    6600    319.19113    224.62807    -3154.269   -2679.4964     899.9844    12019.262 
    6650    332.46688    225.01067   -3167.0223    -2672.503    495.01091    12022.624 
    6700    309.65862    224.23697   -3141.2323   -2680.6386     1125.201    12026.051 
    6750     301.2531    223.98007   -3132.6691    -2684.578    1395.6645     12029.82 
    6800    308.17433    224.24251   -3141.4171   -2683.0312     1128.123     12034.09 
    6850    313.89389    224.37904   -3145.9682   -2679.0748    938.86966    12038.719 
    6900    302.76537    224.11009   -3137.0032   -2686.6626    1212.7064    12043.627 
    6950    295.60519    223.82444   -3127.4813    -2687.791    1321.2735    12048.973 
    7000    318.65422    224.54143   -3151.3809   -2677.4069    572.68725    12054.722 
    7050    304.83619    224.15692   -3138.5639   -2685.1432    916.82184    12060.607 
    7100    309.73011    224.36234   -3145.4112   -2684.7111    712.98291    12066.723 
    7150    310.71213    224.24088   -3141.3625   -2679.2018    680.61153    12072.993 
    7200    298.12095    223.78748   -3126.2494   -2682.8171    1010.8187    12079.416 
    7250    287.82927    223.48608   -3116.2028   -2688.0786    1171.6337     12086.15 
    7300    300.79769    223.96811   -3132.2702   -2684.8564    657.65656    12093.254 
    7350    320.61601    224.54769   -3151.5898   -2674.6978   -78.419057    12100.475 
    7400    321.19671    224.64899   -3154.9663   -2677.2106   -259.43185     12107.43 
    7450    300.91311    224.03008   -3134.3362   -2686.7507    263.30484    12114.049 
    7500    298.61937    223.99229   -3133.0763   -2688.9026    296.71337    12120.548 
    7550    289.51083    223.76239   -3125.4129   -2694.7874     486.3187    12127.002 
    7600    296.83391      223.983   -3132.7668   -2691.2489    215.26614    12133.471 
    7650    303.64556      224.095   -3136.5001   -2684.8504    44.718113    12139.815 
    7700    296.85962    223.82897   -3127.6324   -2686.0762    180.38844    12145.988 
    7750    302.32735    224.00187   -3133.3957   -2683.7066    -95.52359    12152.003 
    7800    292.76538     223.6349   -3121.1635   -2685.6972    133.86493    12157.767 
    7850     297.1591    223.86939   -3128.9798   -2686.9781   -16.720771    12163.367 
    7900    302.94701    224.11408    -3137.136   -2686.5253   -246.00864    12168.721 
    7950    292.86472     223.7786   -3125.9534   -2690.3393   -85.717008    12173.739 
    8000    297.80231    223.82424   -3127.4747   -2684.5164   -247.08807    12178.463 
    8050    277.16699     228.1258   -3104.1933   -2691.9284    338.03808    12182.878 
    8100    285.68099    228.37187   -3112.3958   -2687.4669    109.20046    12187.228 
    8150    306.13158    229.14733   -3138.2442   -2682.8967   -640.81173    12191.415 
    8200    306.57496    229.15148   -3138.3828   -2682.3758   -764.37001    12195.072 
    8250    289.99214    228.62849   -3120.9497   -2689.6084   -367.74201    12198.118 
    8300     279.4904    228.28913   -3109.6376   -2693.9168   -50.664116     12200.74 
    8350    279.91871    228.20373   -3106.7911   -2690.4332   -27.169509    12203.122 
    8400    294.76705    228.69189   -3123.0631   -2684.6195   -519.56618    12205.251 
    8450    286.86776    228.44889    -3114.963    -2688.269   -366.03362    12206.922 
    8500    279.93293    228.18641   -3106.2137   -2689.8347    -124.9073    12208.183 
    8550    286.38001    228.35182   -3111.7275   -2685.7589   -307.14119    12209.162 
    8600     301.9622     228.8292   -3127.6402   -2678.4943   -739.23198     12209.75 
    8650    282.39855    228.25383   -3108.4611   -2688.4147   -217.66373    12209.774 
    8700    283.18315    228.19509   -3106.5031   -2685.2896   -182.52807    12209.442 
    8750    287.58869    228.36283   -3112.0942   -2684.3278   -236.84325    12208.799 
    8800    292.26924    228.55772   -3118.5907   -2683.8623   -381.54104    12207.812 
    8850    303.10145    228.79067   -3126.3557   -2675.5153   -671.85499      12206.4 
    8900    313.47787    229.08339   -3136.1129   -2669.8383   -852.86391    12204.403 
    8950    296.98048    228.51842   -3117.2808   -2675.5448   -245.47149     12201.77 
    9000    301.40182    228.60645   -3120.2151   -2671.9027   -332.96334    12198.747 
    9050    312.03346    228.98843   -3132.9476   -2668.8215   -671.19678    12195.306 
    9100    284.47291    228.12866   -3104.2885   -2681.1567    182.93672    12191.357 
    9150    286.72232     228.1976   -3106.5867    -2680.109    202.43813    12187.254 
    9200    286.66701    228.11456   -3103.8186   -2677.4232    318.19095    12183.072 
    9250    287.09735    228.12031   -3104.0104   -2676.9748     419.9222    12178.869 
    9300    294.15637     228.2931     -3109.77   -2672.2347     370.8281    12174.688 
    9350    290.00649    228.16248   -3105.4161   -2674.0534     604.6552    12170.522 
    9400    308.51127    228.77581   -3125.8603   -2666.9731    59.091892    12166.425 
    9450    301.64692    228.49955   -3116.6517   -2667.9747    252.25938    12162.187 
    9500    303.88567     228.4306   -3114.3535   -2662.3466    426.38892    12157.862 
    9550    288.37248    227.98366   -3099.4555   -2670.5233    1003.8134    12153.594 
    9600    297.21768    228.24003   -3108.0011   -2665.9124    771.67082    12149.607 
    9650    311.40164    228.74782   -3124.9273    -2661.741    310.83443    12145.816 
    9700    304.82483    228.50742   -3116.9142   -2663.5103    571.38434     12142.01 
    9750    301.04462    228.36383   -3112.1275   -2664.3465    890.56249    12138.288 
    9800     301.4258    228.33007   -3111.0023   -2662.6543    1003.7599    12134.827 
    9850      302.893    228.29022   -3109.6739   -2659.1435    951.47501    12131.691 
    9900     317.3928    228.72144   -3124.0481   -2651.9503    458.72218    12128.822 
    9950    304.00971     228.3143   -3110.4766   -2658.2852    845.91779    12126.043 
   10000    309.47777    228.51397   -3117.1323   -2656.8076    697.82918    12123.466 
   10050    315.00224    228.69408    -3123.136   -2654.5941    529.19704     12121.05 
   10100    304.75242    228.25778   -3108.5928   -2655.2966    969.05571    12118.731 
   10150    301.90047    228.17349   -3105.7831   -2656.7291    1131.3406    12116.699 
   10200    324.28851    228.92035   -3130.6783   -2648.3237    568.77934    12115.007 
   10250    303.67159    228.21287   -3107.0957   -2655.4072    1239.1117    12113.481 
   10300    326.47992    228.89724    -3129.908   -2644.2938    614.58654    12112.315 
   10350     333.8224    229.08799   -3136.2664   -2639.7309    389.72125     12111.29 
   10400    314.16075    228.48786    -3116.262   -2648.9716    1045.8915    12110.278 
   10450    319.06422    228.61255   -3120.4182   -2645.8343     931.7038    12109.546 
   10500    314.04303    228.59651   -3119.8838   -2652.7686    967.26302    12109.093 
   10550    312.41862    228.45801   -3115.2671    -2650.568    1109.5873    12108.935 
   10600    314.62262     228.5544   -3118.4799   -2650.5026    1080.1064    12109.153 
   10650    314.39302    228.51503   -3117.1678    -2649.532    1031.4585    12109.742 
   10700    318.48447    228.70773   -3123.5909   -2649.8694    821.90691    12110.661 
   10750    303.92539    228.20945   -3106.9817   -2654.9157    1185.0339    12111.838 
   10800    310.78107    228.44321   -3114.7737   -2652.5104    1018.0046    12113.391 
   10850    316.89917     228.5978   -3119.9267   -2648.5632    822.22793    12115.266 
   10900    310.71356    228.37896    -3112.632   -2650.4692    976.41767    12117.379 
   10950    313.68887    228.49597   -3116.5324    -2649.944    853.50321     12119.77 
   11000     308.9545     228.4419     -3114.73   -2655.1836    897.77268    12122.415 
   11050    316.02163    228.69783   -3123.2611   -2653.2029    552.58214    12125.298 
   11100    300.31316    228.20327   -3106.7756   -2660.0826    908.79183    12128.296 
   11150    294.34698    227.97873   -3099.2911   -2661.4723    1052.4149     12131.56 
   11200     308.0454    228.37571   -3112.5237   -2654.3295    706.32697    12135.147 
   11250    301.00256    228.15869   -3105.2895    -2657.571    933.60327    12138.926 
   11300    323.65746     228.9106   -3130.3535   -2648.9376    270.39404    12142.927 
   11350    310.72876    228.52503   -3117.5012   -2655.3157     577.7682    12146.921 
   11400    314.96073    228.75148   -3125.0493    -2656.569    321.11236    12150.961 
   11450     309.2604    228.52221   -3117.4069   -2657.4055    417.78343    12154.971 
   11500    295.45951    228.06938   -3102.3127   -2662.8391    825.09163    12159.001 
   11550    291.61515    227.94897   -3098.2991   -2664.5436    887.54057    12163.248 
   11600    296.29588    228.06822    -3102.274   -2661.5563    610.46962     12167.76 
   11650      313.918    228.70455   -3123.4851   -2656.5559   -63.619913    12172.359 
   11700     304.6005    228.44636   -3114.8786   -2661.8085     141.7574    12176.742 
   11750    300.86001    228.29562   -3109.8539   -2662.3474     267.0341    12180.975 
   11800    295.54583    228.10319   -3103.4396   -2663.8376    419.14185    12185.139 
   11850    297.00919    228.13202   -3104.4006   -2662.6219     360.6595    12189.308 
   11900    295.59473      228.086   -3102.8665   -2663.1918    309.66796     12193.47 
   11950    308.58762    228.56792   -3118.9307     -2659.93   -210.08773    12197.559 
   12000    298.08307    228.16534   -3105.5113   -2662.1354    62.494058    12201.371 
   12050    296.66203     233.0826   -3102.7534   -2661.4911    171.90024    12204.985 
   12100    300.54066    233.21042   -3107.0141   -2659.9827    29.361773    12208.488 
   12150    306.09676    233.42037   -3114.0123   -2658.7165   -193.28507    12211.791 
   12200     298.7608    233.19153   -3106.3843   -2662.0002   -16.266327     12214.81 
   12250    299.44365    233.25651   -3108.5503   -2663.1506   -70.874445    12217.613 
   12300    295.87013    233.08719   -3102.9063   -2662.8219    95.472452    12220.189 
   12350    275.94866    232.29988   -3076.6625   -2666.2098    694.40573    12222.659 
   12400    300.87306    233.20417   -3106.8058   -2659.2799   -81.834472    12225.212 
   12450     291.8105    232.85934   -3095.3114   -2661.2654     169.9149    12227.595 
   12500     297.0876    233.03041   -3101.0138   -2659.1185   -26.221959    12229.844 
   12550    294.50715     232.9483   -3098.2766   -2660.2195    22.498183    12231.887 
   12600    287.80173     232.7974   -3093.2466   -2665.1634    197.74025    12233.762 
   12650      299.067    233.06979   -3102.3264   -2657.4869   -145.07662    12235.523 
   12700    303.10827    233.24938   -3108.3127   -2657.4622   -337.25837    12237.015 
   12750    310.68514    233.54843    -3118.281   -2656.1604   -612.97338    12238.105 
   12800    286.08052    232.68945   -3089.6485   -2664.1254    118.59465    12238.718 
   12850    286.24527     232.7389   -3091.2967   -2665.5286    81.001085    12239.157 
   12900    297.22108    233.16853   -3105.6178   -2663.5239   -343.38907     12239.42 
   12950    297.54389    233.13359   -3104.4529   -2661.8789   -402.47956    12239.314 
   13000    297.53655    233.15378   -3105.1259   -2662.5628   -382.44906    12238.784 
   13050    290.48349     232.9253   -3097.5101   -2665.4379   -93.726554    12237.839 
   13100     299.6551    233.09641   -3103.2136   -2657.4994   -200.52066    12236.607 
   13150    295.32122    233.00382   -3100.1272   -2660.8593   -75.225498     12235.09 
   13200     292.9806    232.88062   -3096.0208   -2660.2344   -36.831792    12233.336 
   13250    298.05513    233.13159   -3104.3865   -2661.0521   -216.92736    12231.351 
   13300    292.40181    232.93516   -3097.8386   -2662.9131   -9.2944476    12229.067 
   13350    297.95306    233.03858    -3101.286   -2658.1034   -108.67603    12226.573 
   13400    304.70557    233.24607   -3108.2023   -2654.9759   -258.11353     12223.82 
   13450    290.18127    232.70839   -3090.2797    -2658.657    251.04192    12220.755 
   13500    307.16836    233.19818   -3106.6061   -2649.7164   -134.95623     12217.56 
   13550    291.52839    232.70308   -3090.1027   -2656.4763    361.84426    12214.148 
   13600    293.55401    232.78345   -3092.7817   -2656.1424    338.16257    12210.686 
   13650    295.04908    232.83975   -3094.6582    -2655.795    348.02314    12207.216 
   13700    302.48254    233.08876   -3102.9585   -2653.0387    240.31161    12203.725 
   13750     301.3254    233.05918   -3101.9726   -2653.7739    297.90077    12200.165 
   13800    304.13383    233.21858   -3107.2859   -2654.9099    217.35394    12196.547 
   13850     303.0804    233.06233   -3102.0778   -2651.2686    394.92621    12192.867 
   13900    310.99365    233.31575    -3110.525   -2647.9455    208.44153    12189.184 
   13950    317.25939    233.48576   -3116.1922   -2644.2929    10.479919    12185.411 
   14000    318.88416    233.53295   -3117.7651   -2643.4491    41.917616     12181.42 
   14050    294.06174     232.6218   -3087.3932   -2649.9987    867.51042    12177.298 
   14100    312.70147    233.32355   -3110.7852   -2645.6654    374.71458     12173.35 
   14150    297.31192    232.85434   -3095.1447   -2652.9157    860.15513    12169.473 
   14200    312.62379    233.38657   -3112.8858   -2647.8816    497.55579    12165.781 
   14250    302.29883    232.90881   -3096.9603   -2647.3137    1007.4721    12162.207 
   14300    304.62377    233.02734   -3100.9112   -2647.8065    1070.4956     12158.96 
   14350    312.85379    233.24841   -3108.2804   -2642.9341    842.14289    12156.092 
   14400    314.80396    233.19068   -3106.3559   -2638.1088    832.48453    12153.472 
   14450    310.37045    233.13497   -3104.4989   -2642.8464    907.65263      12151.1 
   14500    316.19366    233.25944    -3108.648   -2638.3339    750.45764    12148.983 
   14550    308.69219    233.14136   -3104.7121   -2645.5559    988.98563     12147.07 
   14600    311.90618    233.27028   -3109.0092   -2645.0724    869.52343    12145.473 
   14650      328.249    233.77901   -3125.9669   -2637.7214    341.17195    12144.117 
   14700    305.82315    232.98168   -3099.3893   -2644.5006    1051.7726    12142.797 
   14750    290.57116    232.49089   -3083.0297   -2650.8271     1451.955    12141.818 
   14800    314.78773    233.21284   -3107.0948   -2638.8719    688.93028    12141.361 
   14850    312.38392    233.26397    -3108.799   -2644.1516    697.78617    12141.101 
   14900     304.3709    233.02822   -3100.9406   -2648.2119    953.43441    12141.025 
   14950     301.2027    232.95786   -3098.5952    -2650.579    1001.5216    12141.256 
   15000    311.22578    233.37768   -3112.5894   -2649.6646     726.7363      12141.8 
   15050    311.39223    238.36832   -3112.2774   -2649.1051    790.10339    12142.563 
   15100    301.72747    237.96203   -3098.7344   -2649.9376    1121.9377    12143.574 
   15150    294.62291    237.75045   -3091.6815   -2653.4523    1267.4942    12144.995 
   15200    308.53274    238.23583    -3107.861   -2648.9419    840.11189    12146.878 
   15250    308.70284    238.17053   -3105.6843   -2646.5122    802.31287     12149.06 
   15300    313.33671    238.36902   -3112.3008   -2646.2362    566.53751     12151.47 
   15350    295.41588     237.8424   -3094.7468   -2655.3381    1003.1751    12154.034 
   15400    299.37351    237.94496   -3098.1652   -2652.8698    795.61521    12156.917 
   15450    310.33598    238.33714   -3111.2379   -2649.6367    335.55362    12160.048 
   15500    295.78233     237.8677   -3095.5899   -2655.6361     711.9367    12163.222 
   15550    303.21058    238.09872   -3103.2907    -2652.288     484.3665    12166.556 
   15600    293.88639    237.77771   -3092.5904   -2655.4567    683.13133    12170.009 
   15650    305.04198    238.25347   -3108.4489   -2654.7221     233.0026    12173.612 
   15700    318.76405    238.81651    -3127.217   -2653.0797   -289.08762    12177.165 
   15750    296.61961    238.09152   -3103.0508   -2661.8516    374.30361    12180.441 
   15800    281.78808    237.65693   -3088.5643   -2669.4258    738.80796    12183.732 
   15850    303.41736    238.46882   -3115.6272   -2664.3169   -41.778378    12187.192 
   15900    299.81547    238.48353   -3116.1178    -2670.165   -8.1125187    12190.509 
   15950    284.17138    237.96849   -3098.9498   -2676.2664    422.76327    12193.669 
   16000    290.44125    238.25878    -3108.626   -2676.6167    136.92297    12196.843 
   16050    292.29271    238.36428   -3112.1425   -2677.3793   -35.370586    12199.942 
   16100    295.77601    238.43615   -3114.5384    -2674.594   -227.76208    12202.836 
   16150      291.268    238.26699   -3108.8996   -2675.6605   -129.16142    12205.449 
   16200    278.12611    237.88447   -3096.1489   -2682.4574    225.27019    12207.836 
   16250    292.56544     238.4162   -3113.8733   -2678.7043   -249.98608    12210.137 
   16300    296.84989    238.54872   -3118.2907   -2676.7489   -418.39357    12212.159 
   16350    291.72118    238.44083   -3114.6942   -2680.7811   -357.92028    12213.781 
   16400    289.58445    238.39806   -3113.2686   -2682.5337   -404.04078    12215.024 
   16450    288.65983    238.35262   -3111.7539   -2682.3943   -412.72785    12215.873 
   16500    291.79566    238.50096   -3116.6987   -2682.6748   -524.55286    12216.313 
   16550    282.31113    238.15222   -3105.0741   -2685.1577   -232.37018    12216.324 
   16600    293.88788    238.57568   -3119.1892   -2682.0533   -558.44016    12215.981 
   16650    279.87291    238.10612   -3103.5373   -2687.2475   -113.18304    12215.191 
   16700    277.54497    238.07821   -3102.6069   -2689.7798   -96.414223     12214.14 
   16750    298.57138    238.82505   -3127.5018   -2683.3995    -813.9196    12212.812 
   16800    290.65034    238.54502   -3118.1675   -2685.8471   -584.08327    12210.895 
   16850    281.94601    238.34173    -3111.391   -2692.0177   -238.66843    12208.471 
   16900    292.15284    238.72002   -3124.0005   -2689.4453   -464.21579      12205.7 
   16950    284.27083    238.41943    -3113.981   -2691.1497   -212.17218    12202.523 
   17000    275.48432    238.14711   -3104.9035   -2695.1415    85.947894    12199.054 
   17050    286.08033     238.5542   -3118.4734   -2692.9505    -237.5169    12195.405 
   17100    296.64883     238.8802     -3129.34   -2688.0973   -546.76037    12191.441 
   17150    298.91661    238.95474   -3131.8245   -2687.2087   -583.08874    12186.994 
   17200    286.61227    238.51886   -3117.2954   -2690.9814   -81.618305    12182.059 
   17250    288.91981    238.51188   -3117.0625   -2687.3162    61.323604    12176.869 
   17300    285.57676    238.47168   -3115.7228    -2690.949    213.91716    12171.529 
   17350    299.19218    238.82187   -3127.3955   -2682.3699   -101.86471    12166.079 
   17400    289.29337    238.55296   -3118.4321   -2688.1301    163.78778    12160.418 
   17450    299.56649    238.90039   -3130.0131   -2684.4306    -116.0357    12154.582 
   17500    282.46617    238.30976   -3110.3252   -2690.1782    527.31622    12148.552 
   17550    288.80882    238.50743   -3116.9144   -2687.3332    474.86618    12142.573 
   17600    295.88972    238.64528   -3121.5093   -2681.3958    391.62466    12136.649 
   17650    288.73115    238.42516   -3114.1721   -2684.7064     723.3725    12130.759 
   17700    299.73669    238.90922   -3130.3072   -2684.4716    389.27378    12125.018 
   17750    298.02365    238.82451   -3127.4837   -2684.1961    500.13306    12119.308 
   17800    308.04956    239.18616   -3139.5388   -2681.3384    301.74708    12113.633 
   17850    296.98412    238.72096   -3124.0321   -2682.2907    752.81066    12107.963 
   17900    291.94966    238.50301   -3116.7671   -2682.5141    1016.4341    12102.475 
   17950    300.48349    238.73822   -3124.6074    -2677.661     784.5016    12097.309 
   18000    309.15635    238.99007   -3133.0024   -2673.1558    646.35788    12092.357 
   18050    298.29706    233.60997   -3120.3323   -2676.6381    1158.3527    12087.581 
   18100    304.00485    233.73934   -3124.6445   -2672.4604    1151.6614    12083.186 
   18150    297.85641    233.42108   -3114.0361   -2670.9972    1463.2331    12079.209 
   18200    301.13008    233.51441   -3117.1468   -2669.2387     1452.606    12075.783 
   18250    307.78192    233.62933   -3120.9778   -2663.1755    1340.1626    12072.922 
   18300    309.14046    233.62648   -3120.8828   -2661.0598    1342.2256    12070.578 
   18350    322.24677    233.98984   -3132.9948   -2653.6772    984.57585    12068.719 
   18400    319.54611    233.89955   -3129.9849   -2654.6843    1136.3117    12067.188 
   18450    312.74956    233.65141   -3121.7136   -2656.5224    1410.1304    12066.075 
   18500    314.86821    233.56095   -3118.6982   -2650.3556    1554.7169    12065.495 
   18550    308.68399    233.30892   -3110.2973   -2651.1533    1944.2931    12065.557 
   18600    317.43368    233.51041   -3117.0136   -2644.8551    1707.8429     12066.43 
   18650    322.53064     233.7498   -3124.9934   -2645.2535     1425.434    12067.994 
   18700    317.67798    233.63351   -3121.1169    -2648.595    1495.5972    12070.131 
   18750     315.8164    233.38652   -3112.8842   -2643.1312    1586.2288    12072.894 
   18800    326.37101    233.83849   -3127.9496   -2642.4975    1175.8415    12076.278 
   18850    322.68476    233.58056   -3119.3521    -2639.383    1318.0884    12080.125 
   18900    329.57823    233.71988   -3123.9959   -2633.7733    1213.1808    12084.472 
   18950    322.86172    233.44017   -3114.6722   -2634.4399    1468.9997    12089.302 
   19000    311.78506    233.13053    -3104.351   -2640.5943    1751.6549    12094.752 
   19050    321.80931    233.49665   -3116.5549   -2637.8879    1268.6539    12100.922 
   19100    312.16424    233.19988   -3106.6625   -2642.3419    1323.0125     12107.62 
   19150    306.65031    232.98723   -3099.5744   -2643.4553    1402.6978    12114.867 
   19200    327.63761    233.60787   -3120.2622   -2632.9261     764.2435    12122.651 
   19250    321.50167    233.43305   -3114.4351   -2636.2257    820.78371    12130.721 
   19300    310.59078    232.88431   -3096.1436   -2634.1634    1153.3872     12139.08 
   19350     301.5684    232.60192   -3086.7306   -2638.1704    1346.4994    12147.918 
   19400    324.15182    233.46078   -3115.3594   -2633.2082    494.89611    12157.264 
   19450    313.99876    233.11175   -3103.7251   -2636.6758    667.31977    12166.774 
   19500    301.67815    232.65172   -3088.3905   -2639.6671    964.27272    12176.502 
   19550    317.07287    233.23869   -3107.9562   -2636.3343    380.14127    12186.539 
   19600    305.90152    232.80725   -3093.5751   -2638.5698    679.23492    12196.692 
   19650    305.33154     232.8589   -3095.2967   -2641.1392    595.89061    12207.037 
   19700    308.69784    232.97132    -3099.044   -2639.8793     332.8808    12217.557 
   19750    315.97981    233.15596   -3105.1987   -2635.2027   -47.660819    12228.097 
   19800    308.95095    233.03067   -3101.0224   -2641.4812   -71.842521    12238.469 
   19850    315.08056    233.29139   -3109.7131   -2641.0546   -356.18709    12248.621 
   19900    286.45082    232.22306   -3074.1019    -2648.028    446.93041    12258.503 
   19950    298.35723    232.70192   -3090.0641   -2646.2803   -15.603222    12268.384 
   20000    287.25637    232.23269    -3074.423   -2647.1509    220.88823    12278.179 
   20050    289.34373    237.27792   -3075.9308    -2645.554    49.715006    12287.928 
   20100    299.78214     237.7489   -3091.6299   -2645.7267   -434.46013    12297.548 
   20150    300.04318    237.68903   -3089.6342   -2643.3427   -490.70796    12306.811 
   20200    289.27132    237.28666    -3076.222   -2645.9528   -212.39114     12315.68 
   20250    289.60916    237.23928   -3074.6427   -2643.8711   -277.01903    12324.282 
   20300    292.68685    237.33337   -3077.7789   -2642.4294   -523.97264    12332.583 
   20350    299.30662    237.63327   -3087.7757   -2642.5798    -896.8768    12340.431 
   20400    290.55391    237.38557   -3079.5189    -2647.342    -689.7293    12347.665 
   20450    291.04251    237.33755   -3077.9182   -2645.0145    -737.0602     12354.35 
   20500    290.41468    237.26787   -3075.5957   -2643.6258   -774.57835    12360.474 
   20550    296.77446     237.4201   -3080.6701   -2639.2405   -1034.4349    12365.984 
   20600    294.38036    237.33334   -3077.7779   -2639.9095   -1062.4337    12370.775 
   20650    294.08967    237.34841   -3078.2803   -2640.8442   -1118.1319    12374.795 
   20700    288.18149    237.10576   -3070.1921    -2641.544   -1008.5561    12378.027 
   20750    292.97577    237.27139   -3075.7129   -2639.9337   -1134.8338    12380.493 
   20800     296.3298    237.34245   -3078.0818   -2637.3137   -1100.9597    12382.156 
   20850    276.33896    236.66128   -3055.3761   -2644.3428    -402.1377    12383.078 
   20900    287.68338    237.07064   -3069.0214   -2641.1142   -655.09056    12383.531 
   20950    286.07704    236.99014   -3066.3379     -2640.82   -601.22723    12383.462 
   21000    294.85138    237.21553   -3073.8511    -2635.282   -863.17565    12382.843 
   21050    290.94267    242.06887   -3068.9622   -2636.2071   -708.75031    12381.585 
   21100    283.50765    241.84282   -3061.4274   -2639.7313   -413.13343    12379.749 
   21150    283.54676     241.8168     -3060.56   -2638.8057   -459.97234    12377.498 
   21200    292.25325    242.04196   -3068.0652   -2633.3607     -702.047    12374.793 
   21250    294.08762    242.16951   -3072.3171    -2634.884   -710.42793    12371.507 
   21300    292.34626     242.0818   -3069.3935   -2634.5506    -597.6667    12367.655 
   21350    294.58762     242.1886   -3072.9535   -2634.7767   -632.90562    12363.271 
   21400    290.04765    242.03562   -3067.8539   -2636.4301   -446.80568    12358.354 
   21450    291.01747    242.02927   -3067.6422   -2634.7758   -413.66381    12352.982 
   21500    294.47501    242.25799   -3075.2662    -2637.257   -428.28676    12347.185 
   21550    292.54364     242.1152   -3070.5066   -2635.3701   -221.06247    12340.956 
   21600    284.23323    241.81304   -3060.4345   -2637.6591    169.11964    12334.413 
   21650    285.65017    241.83935   -3061.3116   -2636.4286    225.20331     12327.75 
   21700    298.62036    242.30078   -3076.6928   -2632.5176   -171.69719    12320.983 
   21750    290.10918      241.973   -3065.7666   -2634.2512    145.49473    12313.967 
   21800    298.47571     242.2808   -3076.0265   -2632.0665    10.260728    12306.782 
   21850     294.4298     242.1259   -3070.8632   -2632.9212    192.57056    12299.431 
   21900    306.27165     242.4257   -3080.8568   -2625.3009   -13.890767    12291.951 
   21950    293.02344    241.94886    -3064.962   -2629.1118    478.14149    12284.306 
   22000    303.93472    242.37817   -3079.2722   -2627.1924    227.98313     12276.65 
   22050    297.19433    237.13042    -3071.014     -2628.96    493.78528    12268.956 
   22100     307.8102    237.54756   -3084.9187   -2627.0744     317.1558    12261.276 
   22150    305.37381    237.42619   -3080.8731   -2626.6527    547.91885    12253.574 
   22200    317.20588     237.8111   -3093.7034   -2621.8837    167.18243    12245.904 
   22250    313.99527    237.73553   -3091.1844   -2624.1402    246.11661    12238.114 
   22300    305.53518    237.43707   -3081.2358   -2626.7753    647.09267    12230.246 
   22350    317.89758    237.92327   -3097.4424   -2624.5939    372.31079    12222.471 
   22400    311.49477    237.68241   -3089.4138   -2626.0889    627.11798    12214.702 
   22450    310.89513    237.62835   -3087.6116   -2625.1787    710.64148    12207.031 
   22500     308.3026    237.41131   -3080.3769   -2621.8002     843.1959    12199.524 
   22550    317.27146    237.82477   -3094.1591   -2622.2418    564.52855    12192.241 
   22600    331.57214    238.26788   -3108.9292   -2615.7408    344.08077    12185.032 
   22650    303.75274    237.40338   -3080.1128   -2628.3036    1337.0189    12177.849 
   22700     312.2919     237.7345   -3091.1501   -2626.6396    1178.3193    12171.095 
   22750    315.90794     237.8509     -3095.03   -2625.1408    1078.0345     12164.76 
   22800    320.44872    238.03845   -3101.2817   -2624.6385    898.91451    12158.793 
   22850    315.41295     237.9348   -3097.8267   -2628.6738    1039.0153    12153.102 
   22900    318.40927    238.01432   -3100.4775   -2626.8678     990.3112    12147.732 
   22950    327.06054    238.43327   -3114.4425   -2627.9647      694.515    12142.664 
   23000    313.88928    237.88847   -3096.2823   -2629.3958    1202.1443     12137.81 
   23050    325.18518    238.27969   -3109.3231   -2625.6348    904.43868    12133.343 
   23100    304.52241    237.63343   -3087.7809   -2634.8269    1523.9893      12129.2 
   23150    309.29262    237.84946    -3094.982   -2634.9327    1330.4777    12125.619 
   23200    312.73712     238.0807   -3102.6899   -2637.5171    1182.7822    12122.572 
   23250    306.00253    237.86061   -3095.3535   -2640.1979    1436.6292    12119.992 
   23300    318.79757    238.30176   -3110.0585   -2635.8713    1074.0999    12117.952 
   23350    317.82933    238.29382   -3109.7941   -2637.0471    1101.7891    12116.305 
   23400     318.0469    238.32556    -3110.852   -2637.7813     1023.871    12115.039 
   23450    305.63881    238.06122   -3102.0408   -2647.4262    1348.8936    12114.129 
   23500    293.52101    237.60674   -3086.8913    -2650.301    1751.4289    12113.757 
   23550     300.9713    237.93669   -3097.8896   -2650.2176    1437.5375    12114.126 
   23600    305.81989    238.19436   -3106.4786   -2651.5947    1277.7486    12115.084 
   23650    304.37168    238.08578   -3102.8592   -2650.1294    1291.3393    12116.554 
   23700    317.68319    238.62619    -3120.873   -2648.3434    714.25822    12118.516 
   23750    321.77661     238.8063   -3126.8766   -2648.2582    513.91824    12120.691 
   23800    296.48735    237.99136   -3099.7119   -2658.7095    1258.9663    12123.026 
   23850    297.65734    238.06035   -3102.0117    -2659.269     1159.738    12125.807 
   23900    306.61296    238.38309   -3112.7698   -2656.7063    846.54823    12129.037 
   23950    303.98829    238.30263   -3110.0876   -2657.9281    966.44369    12132.588 
   24000    304.44207    238.38114   -3112.7045     -2659.87      894.531    12136.476 
   24050    313.85082    243.67744   -3122.5815   -2655.7522    425.69726    12140.667 
   24100    308.12764    243.53611   -3117.8703   -2659.5538    491.84668    12144.962 
   24150    291.82719    242.99932   -3099.9774   -2665.9065    1007.6023    12149.399 
   24200    285.47254    242.72487    -3090.829   -2666.2102    1198.0768    12154.225 
   24250    295.56354    243.03295   -3101.0982   -2661.4699    833.24803    12159.547 
   24300     314.0452    243.62732   -3120.9107   -2653.7922    149.36165    12165.167 
   24350    310.44814     243.5098   -3116.9933   -2655.2252    132.17772    12170.756 
   24400    285.71777     242.7705   -3092.3501   -2667.3666    759.80428    12176.321 
   24450    299.68557    243.27772   -3109.2572   -2663.4976    270.08593    12182.097 
   24500    296.44841     243.1849   -3106.1632   -2665.2187    290.44176    12187.921 
   24550     283.3642      242.735   -3091.1665   -2669.6838    598.27767    12193.784 
   24600    288.05375    243.00308   -3100.1027   -2671.6446     304.3414    12199.817 
   24650     289.0021    242.95515   -3098.5049   -2668.6362    222.08307    12205.918 
   24700    296.10436    243.21843   -3107.2812   -2666.8484   -36.263021    12211.992 
   24750    298.99433    243.20982    -3106.994   -2662.2626   -88.214358    12217.923 
   24800    284.29273    242.67957   -3089.3191   -2666.4552    368.59093    12223.699 
   24850    287.86446    242.82375   -3094.1249   -2665.9484    229.31704    12229.517 
   24900    293.46379    243.04599   -3101.5332    -2665.028   -73.373328    12235.335 
   24950    293.20264    242.98785   -3099.5951   -2663.4784   -150.25728    12240.991 
   25000    300.31106    243.15551   -3105.1835   -2658.4936   -482.93696    12246.419 
   25050    294.96373    247.96701   -3098.9002    -2660.164    -342.6842    12251.474 
   25100    286.65886    247.66203   -3088.7345   -2662.3511   -80.638029    12256.218 
   25150     286.8688    247.71646   -3090.5486   -2663.8529   -140.01514     12260.77 
   25200    272.54647    247.16718   -3072.2395   -2666.8473    266.75082    12265.169 
   25250    291.39998    247.87823   -3095.9411   -2662.5057   -449.45743    12269.518 
   25300    297.10537    248.03135   -3101.0452   -2659.1234   -725.11847    12273.526 
   25350    292.34678    247.84561   -3094.8536     -2660.01   -523.82893    12277.023 
   25400    281.73767    247.49175   -3083.0583   -2663.9949   -95.437497    12280.114 
   25450    286.87716     247.6132   -3087.1068   -2660.3988   -161.54999    12282.995 
   25500    279.40681    247.34702   -3078.2342   -2662.6377    72.579335    12285.689 
   25550    292.35184     247.7822     -3092.74   -2657.8888   -360.65224    12288.248 
   25600    281.15432    247.36562   -3078.8542   -2660.6584   -54.347552    12290.522 
   25650      279.079    247.31921   -3077.3071   -2662.1983   -13.702881    12292.606 
   25700    293.86306    247.73152   -3091.0507   -2653.9517   -510.79405    12294.514 
   25750     302.6328    247.92827   -3097.6089   -2647.4655    -855.1508        12296 
   25800    292.52381    247.59543   -3086.5143   -2651.4073   -553.79025    12296.886 
   25850    292.51308    247.50171   -3083.3902   -2648.2992   -436.90843    12297.292 
   25900    291.22211    247.49386   -3083.1285   -2649.9577    -393.8939    12297.305 
   25950    297.86494    247.61184   -3087.0614   -2644.0099   -470.95404     12296.93 
   26000    293.36911    247.39842   -3079.9472   -2643.5829   -321.13295    12296.144 
   26050    297.17445    247.55005   -3085.0016   -2642.9771   -438.91624    12294.989 
   26100    285.06956    247.03382    -3067.794   -2643.7747    147.27724    12293.479 
   26150    280.44798    246.79259   -3059.7532    -2642.608    527.30564    12291.868 
   26200    297.07797    247.31398   -3077.1326   -2635.2517   -2.5766927    12290.338 
   26250    307.04724    247.73592   -3091.1972   -2634.4877   -382.79589    12288.644 
   26300    297.62467    247.33196    -3077.732   -2635.0379    90.172722    12286.603 
   26350     294.8683     247.1361   -3071.2032    -2632.609    321.04647    12284.428 
   26400    297.70719    247.31173   -3077.0578   -2634.2409     240.5444    12282.234 
   26450    296.31379    247.21497   -3073.8322   -2633.0879     330.7032     12280.01 
   26500    294.89877     247.1415   -3071.3835   -2632.7439    423.90055    12277.796 
   26550    291.58029    246.99555   -3066.5183   -2632.8147    631.50369     12275.64 
   26600    283.86071      246.732   -3057.7334   -2635.5121     806.8384    12273.677 
   26650    303.45264    247.36448    -3078.816   -2627.4532    158.87722    12271.945 
   26700    312.89139    247.65687   -3088.5623     -2623.16   -107.63547    12270.146 
   26750    301.64002    247.25873    -3075.291   -2626.6243    242.05388     12268.14 
   26800    299.67645    247.21704   -3073.9013   -2628.1553    282.22487    12266.068 
   26850    302.70066    247.31322   -3077.1074   -2626.8631    222.93954    12263.971 
   26900    296.89363     247.0548   -3068.4932   -2626.8864    512.34907    12261.844 
   26950    296.13163    247.03814    -3067.938   -2627.4647    642.53604     12259.82 
   27000    300.61128    247.29365    -3076.455   -2629.3185    505.38536    12257.966 
   27050     298.9287    247.14621   -3071.5404   -2626.9066    572.87312    12256.238 
   27100    298.24632    247.15124    -3071.708   -2628.0892    638.35578    12254.649 
   27150     302.5628    247.33698   -3077.8992     -2627.86    566.62534    12253.239 
   27200    304.67518    247.24153   -3074.7177   -2621.5365     614.2405    12251.978 
   27250    296.24533    246.79991   -3059.9971   -2619.3546    994.47902      12250.9 
   27300    304.64613    247.10765   -3070.2549   -2617.1168    755.95343    12250.156 
   27350    292.19659    246.71377   -3057.1255   -2622.5053    1117.7404    12249.708 
   27400    312.64173    247.53688   -3084.5627   -2619.5318    389.63164    12249.637 
   27450    318.35218    247.71428    -3090.476   -2616.9513    98.240724    12249.647 
   27500    311.32506    247.48572   -3082.8575   -2619.7851    291.47805    12249.563 
   27550    307.09285    247.29968   -3076.6561   -2619.8787    482.49787    12249.472 
   27600    317.06996     247.6265   -3087.5501   -2615.9325    208.00255     12249.46 
   27650    311.95717    247.40068   -3080.0227     -2616.01    366.40366    12249.429 
   27700    307.37864    247.29947   -3076.6489   -2619.4465    541.62214    12249.418 
   27750    297.98836    246.90019   -3063.3395   -2620.1044    951.61228    12249.555 
   27800    287.99084    246.45504   -3048.5014   -2620.1368    1303.1915    12250.052 
   27850    298.40186    246.91485   -3063.8282   -2619.9781    814.20683    12251.072 
   27900    309.55296    247.31912    -3077.304   -2616.8674     434.3658    12252.399 
   27950    318.98913    247.77714   -3092.5713   -2618.0992    123.71802     12253.81 
   28000    302.85692    247.10726    -3070.242   -2619.7653    586.49683    12255.186 
   28050    303.92334    247.13832   -3071.2773   -2619.2143    590.10867    12256.688 
   28100    304.73079    247.23517   -3074.5058   -2621.2419    527.96674    12258.371 
   28150     302.1048    247.11916   -3070.6388   -2621.2808    503.47635    12260.212 
   28200    317.97893    247.71244   -3090.4147   -2617.4451   -94.607137    12262.133 
   28250    313.15163    247.50303   -3083.4343    -2617.645    41.466843    12263.876 
   28300    298.84617    246.98231   -3066.0769   -2621.5659    531.55911    12265.526 
   28350    322.09967    247.92715   -3097.5718   -2618.4729   -281.28729    12267.235 
   28400    304.31109    247.35973   -3078.6576   -2626.0179    256.71472    12268.715 
   28450     292.2982    246.84823   -3061.6076   -2626.8361    676.26948    12270.179 
   28500    290.46394    246.80777    -3060.259   -2628.2159    624.66592    12271.858 
   28550    304.63386    247.31457   -3077.1524   -2624.0326     182.2433    12273.714 
   28600    299.40024    247.07688   -3069.2292    -2623.894    435.44194    12275.571 
   28650    295.32596    246.90115   -3063.3716   -2624.0967    569.74689    12277.519 
   28700    314.09551    247.66388   -3088.7959   -2621.6026   -144.31905    12279.576 
   28750     292.2069    246.80247   -3060.0822   -2625.4466    513.51556     12281.49 
   28800    284.50326    246.58395   -3052.7982   -2629.6212    719.49105    12283.523 
   28850    297.39415    247.06781   -3068.9269   -2626.5756    304.07112    12285.791 
   28900    306.26206    247.42356   -3080.7852   -2625.2436   -60.378577    12288.095 
   28950    306.16003    247.43466   -3081.1554   -2625.7655   -124.26016    12290.229 
   29000    289.61453    246.77106   -3059.0353   -2628.2556    477.33071    12292.184 
   29050    298.76275    247.14106   -3071.3686   -2626.9816    235.39392     12294.21 
   29100    294.60327    247.06496    -3068.832    -2630.632    304.08948    12296.252 
   29150    294.51389    247.05475   -3068.4915   -2630.4245    204.01165    12298.301 
   29200    289.10188    246.83189    -3061.063   -2631.0459    133.15627    12300.324 
   29250    295.63496    247.10544   -3070.1812   -2630.4466   -201.27474    12302.257 
   29300     302.5999    247.33497   -3077.8323   -2627.7379   -291.51672    12303.959 
   29350    296.99535    247.20519   -3073.5063   -2631.7482   -36.197499    12305.368 
   29400    297.70581    247.16145   -3072.0483   -2629.2335   -41.931913    12306.603 
   29450    311.50686    247.72187   -3090.7291   -2627.3862   -491.50818    12307.631 
   29500    305.09399    247.41389   -3080.4629   -2626.6588   -226.69827    12308.279 
   29550    306.10862    247.51496    -3083.832   -2628.5186   -199.56223    12308.627 
   29600    298.24737    247.18417   -3072.8057   -2629.1853    43.894765    12308.727 
   29650    299.27412    247.23995   -3074.6651   -2629.5175   -78.561595    12308.663 
   29700    291.21178    247.00835    -3066.945   -2633.7896    4.6793105    12308.423 
   29750    306.37951    247.56005   -3085.3351   -2629.6188   -502.19284     12307.98 
   29800    296.58974    247.24628   -3074.8761   -2633.7213   -73.963546    12307.141 
   29850    278.98031    246.57008   -3052.3361   -2637.3741    525.63409    12306.109 
   29900    290.29207    247.03233   -3067.7443   -2635.9569    150.57233    12305.141 
   29950    283.80849    246.87066   -3062.3553   -2640.2117    286.38756    12304.144 
   30000    303.99942    247.53065   -3084.3552   -2632.1791   -337.05341    12303.073 
   30050    296.69247    242.13425   -3071.1416   -2629.8341   -98.456616    12301.693 
   30100    299.09809    242.19814   -3073.2715   -2628.3857   -189.64908    12300.053 
   30150    309.99351    242.71926    -3090.642   -2629.5501   -534.62787    12298.106 
   30200    306.77358    242.65078   -3088.3592   -2632.0567   -442.87115    12295.698 
   30250    295.06325    242.22283   -3074.0942     -2635.21   -40.304049    12292.859 
   30300    298.93177    242.45967   -3081.9889   -2637.3506     -99.8722    12289.753 
   30350    289.85558    242.10426    -3070.142   -2639.0038    272.22864    12286.425 
   30400    294.53369     242.3151   -3077.1699   -2639.0733    141.20897    12283.009 
   30450    306.19997    242.74009   -3091.3362   -2635.8869   -231.75842    12279.456 
   30500    294.15255    242.28086   -3076.0285   -2638.4989    178.92835    12275.605 
   30550    287.50387     242.0832   -3069.4401   -2641.7999    424.62895    12271.631 
   30600    292.17923    242.25325   -3075.1083   -2640.5139    277.43344    12267.683 
   30650    312.01948    242.94948    -3098.316   -2634.2107   -330.72332    12263.646 
   30700     301.5259    242.63756   -3087.9188   -2639.4218   -15.813888    12259.263 
   30750    290.78678    242.23513   -3074.5044   -2641.9811    419.59984     12254.66 
   30800    305.59612    242.84554   -3094.8515   -2640.3004   -71.675738    12250.033 
   30850    310.26159    242.98422   -3099.4739   -2637.9833   -295.50329    12245.188 
   30900    298.06797    242.61993    -3087.331   -2643.9774    120.12266    12239.984 
   30950    293.02937    242.46206   -3082.0685   -2646.2095    368.52078    12234.612 
   31000    298.46943    242.71907   -3090.6355   -2646.6849    308.17979     12229.21 
   31050    297.78294    237.75197   -3091.7322   -2648.8027    383.27394    12223.759 
   31100    314.52191    238.24672   -3108.2238   -2640.3963   -101.84913    12218.252 
   31150    317.51365    238.47035   -3115.6785    -2643.401   -180.38575    12212.469 
   31200    310.75861    238.31274   -3110.4246   -2648.1947    56.243035    12206.349 
   31250     299.5337    238.09285    -3103.095   -2657.5613    408.55819    12200.026 
   31300     289.1861    237.80752   -3093.5838   -2663.4414    792.66348    12193.701 
   31350    297.67434    238.19611    -3106.537    -2663.769    562.89982    12187.539 
   31400    287.98975    237.76715   -3092.2382   -2663.8753    805.97481    12181.493 
   31450    293.49007    237.92176   -3097.3921   -2660.8479    672.96838    12175.618 
   31500    293.84577    237.96372   -3098.7908   -2661.7175    652.09637    12169.896 
   31550    313.86784    238.74942   -3124.9807    -2658.126   -35.963605    12164.252 
   31600    292.69327     238.1029   -3103.4299   -2668.0708    679.40293    12158.447 
   31650    290.15781    237.96341   -3098.7803   -2667.1926    946.88045    12152.754 
   31700      286.533    237.88168    -3096.056   -2669.8599    1126.2915    12147.349 
   31750    294.55608    238.15835   -3105.2784   -2667.1486    894.87383     12142.31 
   31800     305.8317    238.61933   -3120.6442   -2665.7427    480.69109    12137.521 
   31850    303.49778    238.67011   -3122.3372   -2670.9072    497.94144    12132.785 
   31900    300.42891    238.45365   -3115.1218   -2668.2565    652.43076    12128.109 
   31950    295.79166    238.34234   -3111.4113   -2671.4436     763.8762    12123.562 
   32000    318.69332    239.12707   -3137.5691   -2663.5369    105.11115    12119.147 
   32050    305.26449    233.80412   -3126.8039   -2672.7461    513.63368    12114.614 
   32100    293.79477    233.43978   -3114.6593   -2677.6619    976.25592    12110.121 
   32150      302.961    233.84726   -3128.2419   -2677.6104    630.88336     12105.89 
   32200    302.87584    233.96236   -3132.0787   -2681.5738     512.5138    12101.767 
   32250    290.63081    233.57399   -3119.1331   -2686.8418    941.51886    12097.714 
   32300    293.16324    233.70798   -3123.5992   -2687.5411    822.98875     12093.92 
   32350    300.93271    233.98536   -3132.8454   -2685.2308    594.09038    12090.329 
   32400    295.47084    233.76944   -3125.6479   -2686.1574    805.51288    12086.859 
   32450    292.21273    233.64436   -3121.4788   -2686.8345    893.54367     12083.61 
   32500    303.16506    234.15108   -3138.3695   -2687.4344    481.41536    12080.582 
   32550    311.87844    234.49145   -3149.7151   -2685.8196    194.19075    12077.592 
   32600    292.08127    233.75995   -3125.3316   -2690.8829    914.99378    12074.546 
   32650    293.38902    233.85086   -3128.3619    -2691.968    941.88297    12071.734 
   32700    304.63709    234.22111   -3140.7037   -2687.5791    654.73667    12069.194 
   32750    291.11204    233.72441   -3124.1469   -2691.1398    1230.7268    12066.836 
   32800    283.13653    233.52855   -3117.6183   -2696.4741    1472.4203    12064.909 
   32850    300.88005    234.18987   -3139.6625   -2692.1262    808.76499    12063.512 
   32900    308.75771    234.43516   -3147.8386   -2688.5849    489.04314    12062.354 
   32950    300.22651    234.18032   -3139.3441   -2692.7799    635.60911     12061.27 
   33000    292.02937    233.95624   -3131.8748   -2697.5032    894.32255    12060.332 
   33050    292.25184    228.98367    -3132.789   -2698.0865    897.47764    12059.653 
   33100    315.55379    229.74704   -3158.2347   -2688.8723    38.158016    12059.191 
   33150    302.34294    229.25955   -3141.9848   -2692.2726    432.16961      12058.6 
   33200    280.49291    228.59933   -3119.9776   -2702.7657    1145.0352    12058.026 
   33250    305.97525     229.6005     -3153.35    -2698.235    320.06431    12057.775 
   33300    293.17901    229.14459   -3138.1529   -2702.0714    740.79291    12057.541 
   33350     268.8462     228.3135   -3110.4499   -2710.5615    1527.8456    12057.507 
   33400     291.3569    229.06839    -3135.613   -2702.2417    779.67538    12058.024 
   33450    296.65639     229.2096   -3140.3201   -2699.0662    576.13702    12058.786 
   33500    291.57795    229.09883   -3136.6276   -2702.9275    702.74128    12059.665 
   33550    301.54145    229.50387    -3150.129   -2701.6089    372.09203    12060.701 
   33600    293.59077    229.21905   -3140.6349   -2703.9409    606.66296    12061.773 
   33650    300.59321    229.53823   -3151.2742   -2704.1646    439.82871     12062.95 
   33700    304.05954    229.58335   -3152.7784   -2700.5128    353.64129    12064.174 
   33750     302.7265    229.50087    -3150.029   -2699.7463    322.73071     12065.37 
   33800    298.16019    229.41112   -3147.0373   -2703.5466    436.84768    12066.556 
   33850    285.58005    229.00842    -3133.614   -2708.8353    792.30007    12067.787 
   33900    290.00703    229.14805   -3138.2682   -2706.9047    570.17674    12069.215 
   33950    290.42059    229.14139   -3138.0465   -2706.0678    516.94206    12070.774 
   34000     290.0047    229.14875   -3138.2915   -2706.9315    570.92953    12072.414 
   34050    293.26091    229.25214   -3141.7381   -2705.5347    403.27137    12074.162 
   34100    294.71448    229.32061   -3144.0203   -2705.6548    357.36021    12075.928 
   34150    275.73976    228.68018   -3122.6726   -2712.5306    988.19602    12077.746 
   34200    290.41697    229.17874   -3139.2914   -2707.3182     547.1043    12079.858 
   34250    301.58775    229.46548   -3148.8492   -2700.2603    152.66896    12082.076 
   34300    288.57858     229.0535   -3135.1165   -2705.8777    441.26555    12084.218 
   34350    289.60746    229.07535   -3135.8451   -2705.0759    389.36121     12086.38 
   34400    292.70663    229.19707   -3139.9025   -2704.5235    278.24772    12088.555 
   34450     286.2401    228.98708   -3132.9027   -2707.1422    372.43173    12090.709 
   34500    294.22171    229.25866   -3141.9553   -2704.3228    104.80572    12092.857 
   34550    292.31329      229.187   -3139.5667   -2704.7729    226.67011    12094.888 
   34600    289.64097    229.17054   -3139.0179   -2708.1989    241.05944    12096.845 
   34650    296.63479    229.34597   -3144.8656   -2703.6438    80.048144    12098.736 
   34700    286.42943    228.96071   -3132.0237   -2705.9817    538.74511     12100.52 
   34750    278.98139    228.67083   -3122.3612   -2707.3975    777.48518    12102.394 
   34800    294.95065    229.18473   -3139.4909   -2700.7742    222.65837    12104.466 
   34850    305.02179    229.43281   -3147.7604   -2694.0636   -54.825196    12106.484 
   34900    292.59047    228.91201   -3130.4004   -2695.1943    412.92544    12108.312 
   34950    289.48282    228.76214   -3125.4046   -2694.8209    489.44859    12110.149 
   35000    297.02617    229.03681   -3134.5604   -2692.7565    217.94389    12112.043 
   35050    300.11695     229.0763   -3135.8767   -2689.4755    83.041812     12113.87 
   35100      296.932    228.92249   -3130.7498    -2689.086    152.38678    12115.548 
   35150    298.61295    228.93226   -3131.0753   -2686.9112    168.57578    12117.093 
   35200    289.46118    228.54393   -3118.1309   -2687.5794    495.77754    12118.568 
   35250    319.14746    229.42158   -3147.3861   -2672.6784   -308.69272    12120.034 
   35300    301.63893    228.74233   -3124.7444   -2676.0794     256.8055    12121.216 
   35350    307.89132    228.98996   -3132.9987   -2675.0337     118.2952    12122.274 
   35400    308.80651    228.95655   -3131.8849   -2672.5586    164.87463    12123.195 
   35450    294.86078    228.41007    -3113.669   -2675.0859    705.91372    12124.019 
   35500    293.02979    228.28172   -3109.3908   -2673.5312    874.75788    12124.987 
   35550    285.87059    227.93528   -3097.8427   -2672.6319    1223.8003    12126.243 
   35600     309.8126    228.69461   -3123.1537    -2662.331    538.23017    12127.909 
   35650    311.71956    228.67052   -3122.3505   -2658.6913    406.45872    12129.705 
   35700     316.8409    228.80806   -3126.9352   -2655.6584    245.34674    12131.501 
   35750    299.46078     228.2019   -3106.7299   -2661.3047    803.76223     12133.26 
   35800    299.20877    228.08897   -3102.9658   -2657.9154    900.95733    12135.213 
   35850     306.6839    228.33425   -3111.1417   -2654.9727    643.94967    12137.441 
   35900    308.48732    228.45723   -3115.2409   -2656.3893     579.1003    12139.816 
   35950    300.24421    228.18401   -3106.1337   -2659.5431    810.53153    12142.335 
   36000    318.41233    228.69537   -3123.1791   -2649.5649    264.18251    12145.039 
   36050    303.76857    233.20668   -3106.8892   -2655.0565     716.1429    12147.742 
   36100    295.33877    232.95851    -3098.617    -2659.323     992.2601    12150.639 
   36150    307.02908      233.207      -3106.9   -2650.2175    632.80444    12153.876 
   36200    307.22892    233.24006   -3108.0019   -2651.0222    577.28862    12157.293 
   36250    309.48557    233.29592   -3109.8639   -2649.5276    545.53938    12160.843 
   36300    308.55617    233.24723   -3108.2411   -2649.2871    608.32567    12164.513 
   36350    302.47739    233.01101   -3100.3669   -2650.4547     876.8253    12168.355 
   36400    297.01555    232.80155    -3093.385   -2651.5969    979.34934    12172.504 
   36450    297.19428    232.77226   -3092.4088   -2650.3548    930.38908    12177.005 
   36500    307.72879    233.07763   -3102.5877   -2644.8644    562.67551    12181.824 
   36550    307.54905    233.15877   -3105.2922   -2647.8363    460.73275    12186.794 
   36600    295.37909    232.73153   -3091.0511   -2651.6971    793.85417    12191.883 
   36650    308.56191    233.20642   -3106.8807   -2647.9183    354.52228    12197.192 
   36700    303.74373    233.01064   -3100.3547   -2648.5589    472.63009    12202.566 
   36750    294.37541    232.61986   -3087.3287   -2649.4675    813.32028    12208.038 
   36800    292.79467    232.58155   -3086.0517   -2650.5418    752.99287    12213.786 
   36850    299.81222      232.748   -3091.5999   -2645.6519     310.5218    12219.786 
   36900    313.33617    233.17838   -3105.9461   -2639.8823   -234.16564    12225.776 
   36950    297.64496    232.70856   -3090.2852   -2647.5609      126.445    12231.519 
   37000     296.3463    232.60826   -3086.9419   -2646.1492    170.83151    12237.145 
   37050    301.87415    237.81452   -3093.8175   -2644.8026    8.1974179    12242.702 
   37100    297.43822    237.66862   -3088.9541   -2646.5373    127.58859    12248.126 
   37150    299.26913     237.7089   -3090.2965   -2645.1564   -13.276127    12253.458 
   37200    292.94311    237.48003   -3082.6675   -2646.9369     79.32739    12258.663 
   37250    309.28059    238.00808   -3100.2693   -2640.2379   -384.09945    12263.696 
   37300    300.93155     237.7193   -3090.6432   -2643.0303   -142.17129    12268.411 
   37350    301.09319    237.63766   -3087.9218   -2640.0685   -145.72755    12272.863 
   37400    294.52453    237.47261   -3082.4203   -2644.3373    3.3542353     12277.09 
   37450    298.11935    237.55895   -3085.2985   -2641.8685   -137.30905    12281.159 
   37500    288.19027    237.26196   -3075.3988   -2646.7376    153.76198    12285.006 
   37550    280.37931    237.02352   -3067.4507   -2650.4077    367.25886    12288.773 
   37600    294.67851    237.56152    -3085.384    -2647.072   -150.64351     12292.55 
   37650    287.43752    237.22648    -3074.216   -2646.6745   -34.032586    12296.143 
   37700    308.03806    237.96754    -3098.918   -2640.7347   -723.96858    12299.495 
   37750    291.13929    237.30053   -3076.6844   -2643.6368   -259.94292    12302.349 
   37800    295.84226    237.49549   -3083.1829     -2643.14   -492.28694    12304.845 
   37850     311.6159    237.97322   -3099.1075   -2635.6025   -982.96271    12306.896 
   37900    294.88373    237.44501   -3081.5003   -2642.8831   -439.97025    12308.262 
   37950    281.60751    236.92228   -3064.0759   -2645.2061    114.00313    12309.202 
   38000    288.39559    237.13537   -3071.1789   -2642.2123   -52.678264        12310 
   38050    285.69137    237.01099   -3067.0329   -2642.0886    15.941758    12310.597 
   38100    290.16593     237.1053   -3070.1768   -2638.5769   -159.79308    12311.017 
   38150    305.05793    237.66646   -3088.8821   -2635.1315   -626.33615    12311.135 
   38200    303.40657    237.52873   -3084.2908   -2632.9966   -522.08032    12310.752 
   38250    308.67026    237.69789   -3089.9295   -2630.8059   -682.77109    12309.867 
   38300    299.39261     237.4209   -3080.6966   -2635.3728    -418.1216    12308.428 
   38350    305.41854     237.6287   -3087.6232   -2633.3363   -573.73955    12306.533 
   38400    302.55113    237.46245   -3082.0817   -2632.0598    -389.7283     12304.14 
   38450    294.00259    237.15037   -3071.6791   -2634.3725    6.0915337    12301.334 
   38500    290.77021    237.03566   -3067.8553   -2635.3567    207.53207    12298.327 
   38550    297.68153    237.18851   -3072.9503   -2630.1716    107.87862    12295.203 
   38600    290.88345    236.91071   -3063.6904   -2631.0233    359.54641    12291.966 
   38650    308.02864    237.41844   -3080.6147   -2622.4454   -131.87629    12288.675 
   38700    302.63022    237.13281   -3071.0938   -2620.9542    177.04046    12285.137 
   38750     296.7084    237.00575   -3066.8584   -2625.5272    477.25253     12281.47 
   38800    305.78782     237.2355   -3074.5166   -2619.6804    292.95259    12277.829 
   38850    306.51672    237.20429   -3073.4764    -2617.556    312.85575    12274.158 
   38900    318.17912    237.56991   -3085.6637   -2612.3964    31.428693    12270.424 
   38950    321.84141    237.57021   -3085.6737    -2606.959    17.599948    12266.503 
   39000    315.89453     237.4271   -3080.9034   -2611.0343    293.95407    12262.379 
   39050    311.28805     242.1789   -3072.6301   -2609.6127    673.46243    12258.213 
   39100    309.74289    242.06954   -3068.9847   -2608.2656    890.69599    12254.208 
   39150     318.4688    242.40155   -3080.0516   -2606.3534    638.04969    12250.459 
   39200    306.78203     241.8624   -3062.0799   -2605.7649    1070.8511    12246.889 
   39250    306.41974    241.94607   -3064.8691   -2609.0929    1096.1919    12243.685 
   39300    311.53313    242.04893   -3068.2978   -2604.9159    1030.8912    12240.886 
   39350    323.80478    242.47841   -3082.6137   -2600.9786    662.51485    12238.449 
   39400    325.48362    242.44535   -3081.5117   -2597.3795    566.60473    12236.201 
   39450    314.33722    242.08576   -3069.5253   -2601.9725      1001.47    12234.078 
   39500    318.79691    242.16871   -3072.2903   -2598.1041    948.15806    12232.299 
   39550    312.51623    241.95808   -3065.2692    -2600.425    1133.1713    12230.873 
   39600     308.5356    241.86493   -3062.1644   -2603.2411    1203.9264    12229.865 
   39650    317.35623    242.03624   -3067.8745   -2595.8312    966.49366     12229.31 
   39700    312.60813    241.78079   -3059.3598   -2594.3789    1138.5294    12229.122 
   39750    321.25159    242.16339   -3072.1129   -2594.2755    784.95821    12229.342 
   39800    319.12351    242.02297   -3067.4324   -2592.7604    891.57035    12229.834 
   39850    301.41216    241.45604   -3048.5345   -2600.2068    1448.4182    12230.656 
   39900    325.73902    242.25974   -3075.3245   -2590.8124    672.80739    12232.023 
   39950    325.80125    242.28407   -3076.1356   -2591.5309    722.32663    12233.621 
   40000    306.37662    241.48221   -3049.4069   -2593.6949    1350.9385    12235.481 
   40050    323.98056    242.12079   -3070.6931   -2588.7966    737.64398    12237.837 
   40100    313.49084    241.73272   -3057.7573   -2591.4635    1110.1889    12240.494 
   40150    315.86479    241.71204   -3057.0679   -2587.2429    1157.4687    12243.585 
   40200      323.169    242.03809   -3067.9363   -2587.2469    849.04959    12247.127 
   40250    314.64743    241.81564   -3060.5213   -2592.5071    968.47843    12250.981 
   40300    313.70473    241.77602   -3059.2008   -2592.5887    950.17887    12255.192 
   40350    310.47491    241.62724   -3054.2412   -2592.4333    983.35656     12259.78 
   40400    312.48313    241.80195   -3060.0649   -2595.2699    786.97754    12264.741 
   40450     321.9051    242.22995   -3074.3315   -2595.5221    385.37722     12269.98 
   40500    311.21119    241.91821   -3063.9403   -2601.0372    606.28088    12275.318 
   40550    309.48486    241.84625   -3061.5416   -2601.2063    522.15712    12280.808 
   40600    317.68939    242.21436   -3073.8119    -2601.273    86.038783    12286.433 
   40650    324.19725    242.50636   -3083.5453   -2601.3264   -169.01034    12291.962 
   40700    310.77958    242.08221   -3069.4071   -2607.1461    254.28858    12297.279 
   40750    298.96774    241.67956   -3055.9855   -2611.2936    510.21254    12302.587 
   40800     302.0692    241.86731   -3062.2435   -2612.9385    164.30017    12308.004 
   40850    306.54392    242.10505   -3070.1683   -2614.2075   -188.94881    12313.371 
   40900    304.93888    242.12861   -3070.9538   -2617.3803   -270.53675      12318.5 
   40950     301.5631    242.17833   -3072.6111   -2624.0589   -209.63749    12323.337 
   41000    292.94493    241.95099   -3065.0331   -2629.2997    47.129793    12327.912 
   41050    289.16212    246.83685   -3061.2282   -2631.1214   -9.0995576    12332.373 
   41100    293.64201    247.10601   -3070.2003   -2633.4301   -285.64377    12336.676 
   41150    282.35122    246.75437   -3058.4791   -2638.5031   -40.045897    12340.729 
   41200     280.7211    246.67741   -3055.9136   -2638.3622    -109.6662    12344.622 
   41250    280.66393    246.74417   -3058.1389   -2640.6726   -272.48187     12348.31 
   41300    290.43944    247.09397    -3069.799   -2637.7923   -672.14681    12351.696 
   41350    288.17292    247.00469   -3066.8229   -2638.1876   -659.46559    12354.588 
   41400    293.14812    247.26361   -3075.4537   -2639.4181   -855.59916    12356.947 
   41450    293.37674    247.34491   -3078.1637   -2641.7881   -871.24863    12358.693 
   41500    289.17186    247.19341   -3073.1136   -2642.9924   -722.73062    12359.809 
   41550    281.59112    246.94953   -3064.9844    -2646.139    -601.0926    12360.378 
   41600    295.28374    247.27919    -3075.973   -2636.7608   -989.33569    12360.423 
   41650    279.57263    246.81814   -3060.6048   -2644.7617   -503.96625      12359.8 
   41700    275.95028    246.68251   -3056.0838   -2645.6287   -293.89958    12358.729 
   41750    290.68468      247.218   -3073.9333   -2641.5618   -652.74601    12357.297 
   41800     271.3278    246.50649   -3050.2165   -2646.6369    20.302557    12355.394 
   41850    275.97913    246.71143   -3057.0476   -2646.5496   -186.22549    12353.288 
   41900    285.81912    247.06395   -3068.7982   -2643.6639    -505.1066    12350.913 
   41950    271.89795    246.62779   -3054.2595    -2649.832    15.093689    12348.143 
   42000    276.40514    246.87986   -3062.6619   -2651.5302   -105.32767    12345.183 
   42050    296.57477    242.51249   -3083.7495    -2642.617   -762.57398    12341.968 
   42100    303.66145    242.69317   -3089.7723   -2638.0989   -992.15375    12338.172 
   42150    294.53661    242.34475   -3078.1583   -2640.0574   -627.44989    12333.664 
   42200    295.49549    242.39917   -3079.9724   -2640.4452   -541.67597    12328.583 
   42250    290.98793    242.28716   -3076.2387   -2643.4163   -348.56425    12323.021 
   42300    286.43019    242.08507   -3069.5022    -2643.459   -159.87698    12317.074 
   42350    293.57272    242.36164   -3078.7213   -2642.0542   -344.14692    12310.812 
   42400    293.74397    242.40537    -3080.179   -2643.2571   -276.97106    12304.178 
   42450    289.62074    242.20232   -3073.4108   -2642.6219   -16.749581    12297.188 
   42500    290.13102    242.14433   -3071.4777   -2639.9298     56.09829    12289.967 
   42550    298.54702    242.40506   -3080.1687   -2636.1026   -106.59149    12282.566 
   42600     294.8523    242.26396   -3075.4654   -2636.8949    79.819963    12274.938 
   42650    296.35672    242.28955   -3076.3183   -2635.5102    104.21425    12267.135 
   42700    292.64237    242.13381   -3071.1269   -2635.8435    375.64605    12259.203 
   42750    292.57664    242.16676   -3072.2253   -2637.0398    544.02171    12251.274 
   42800    303.09358    242.45367   -3081.7891   -2630.9603    328.93438    12243.414 
   42850    317.46634    242.95544   -3098.5145   -2626.3074   -25.964523    12235.526 
   42900    315.37999    242.93667   -3097.8891   -2628.7853     166.5184    12227.439 
   42950    303.20598    242.43773   -3081.2577   -2630.2618    610.15839     12219.25 
   43000    315.05231    242.89388   -3096.4625   -2627.8461    252.59784    12211.143 
   43050    308.80744    242.60814   -3086.9379   -2627.6103    571.94099     12203.01 
   43100    312.56174    242.78738   -3092.9125   -2628.0006    626.53091    12194.958 
   43150    302.71873     242.3944   -3079.8133   -2629.5421    1187.8216    12187.072 
   43200    305.82404    242.44518   -3081.5061    -2626.616    1220.0163    12179.585 
   43250    303.20327    242.36923   -3078.9743   -2627.9824    1285.4568    12172.567 
   43300    303.47256    242.35862   -3078.6208   -2627.2284    1348.7999    12166.051 
   43350    310.90311    242.63896   -3087.9654   -2625.5206    1231.4239    12160.045 
   43400    305.05562    242.41032    -3080.344   -2626.5968     1499.154    12154.531 
   43450    312.82676    242.67008   -3089.0025   -2623.6964    1369.5384    12149.616 
   43500    317.78136    242.82282   -3094.0939   -2621.4182    1273.1091    12145.251 
   43550    318.80745    242.79793   -3093.2643   -2619.0624    1202.8809    12141.382 
   43600    314.77124    242.69242   -3089.7474    -2621.549    1300.6416    12137.978 
   43650    315.94166      242.837   -3094.5665   -2624.6272    1227.2629    12135.079 
   43700    319.59304    242.92455   -3097.4851   -2622.1147    1180.5165    12132.677 
   43750    313.64284    242.67304   -3089.1012   -2622.5812     1452.038    12130.742 
   43800    303.67227    242.29495   -3076.4982   -2624.8087    1843.6643    12129.415 
   43850    312.28028    242.65983   -3088.6609   -2624.1677    1590.9969     12128.85 
   43900    309.53152    242.54284   -3084.7613   -2624.3566    1648.8217     12128.99 
   43950    303.56273    242.34744    -3078.248   -2626.7214    1749.3821     12129.85 
   44000    316.05545    242.85988   -3095.3295   -2625.2209    1319.5944    12131.442 
[...]
   89400    291.32159    233.30413   -3110.1376   -2676.8188    145.67137    12176.511 
   89450    293.36972    233.37381   -3112.4604   -2676.0951    114.24653    12173.738 
   89500    295.91175    233.48575   -3116.1918   -2676.0455    56.645905    12170.824 
   89550    306.26264    233.86356   -3128.7852   -2673.2427   -157.78428    12167.709 
   89600    298.54107    233.56591   -3118.8636   -2674.8064    214.04427    12164.342 
   89650    296.12179    233.44055   -3114.6851   -2674.2264    475.08479     12160.88 
   89700    297.52977    233.51054    -3117.018    -2674.465    531.17399     12157.46 
   89750    287.10528    233.02734   -3100.9115   -2673.8641    989.39677    12154.154 
   89800    301.39885    233.41293   -3113.7643   -2665.4564    562.79991    12151.144 
   89850    306.20021    233.49103   -3116.3677   -2660.9181    351.87658    12148.259 
   89900    312.28703    233.68749   -3122.9162   -2658.4129    217.54955    12145.352 
   89950     314.9372    233.68363   -3122.7877   -2654.3425    280.63564    12142.387 
   90000    310.42247    233.38316   -3112.7719    -2651.042    613.92929     12139.39 
   90050    310.15308     228.3884   -3112.9465   -2651.6173    605.63604     12136.49 
   90100    322.95237     228.8609   -3128.6968   -2648.3296    262.44081    12133.659 
   90150    306.44434    228.38438   -3112.8125   -2656.9998    866.29037    12130.793 
   90200    309.01207    228.53217   -3117.7391   -2658.1071    818.12386    12128.133 
   90250    305.97352    228.39704   -3113.2345   -2658.1221    936.20012    12125.712 
   90300     309.9988    228.42121   -3114.0403   -2652.9406    873.99747    12123.572 
   90350    322.51982    228.79957   -3126.6523   -2646.9285     551.1409    12121.664 
   90400    298.36053    228.00268   -3100.0894   -2656.3007    1249.3485    12119.896 
   90450    313.63282    228.51128   -3117.0426   -2650.5376     805.9711    12118.501 
   90500    300.46857    228.07199   -3102.3998   -2655.4755    1194.8531    12117.389 
   90550    327.71737     229.0272   -3134.2399   -2646.7852    425.44878    12116.626 
   90600    318.45202    228.65788   -3121.9292    -2648.256    768.48274    12115.931 
   90650    309.61891    228.34727   -3111.5755   -2651.0409    1059.4692    12115.397 
   90700    319.85832    228.61961   -3120.6537   -2644.8887    748.48624    12115.196 
   90750    312.19833    228.51568   -3117.1894    -2652.818     899.0696    12115.207 
   90800    311.96601    228.45761   -3115.2538    -2651.228    954.61524     12115.46 
   90850    317.83169    228.66803   -3122.2676   -2649.5171     685.4792    12115.988 
   90900    316.99317    228.70047   -3123.3489   -2651.8456    599.85555    12116.681 
   90950    333.67194     229.2822   -3142.7402   -2646.4284    89.405266    12117.421 
   91000     305.8339     228.2937   -3109.7899   -2654.8852    905.29186     12118.07 
   91050     307.7766    233.46677   -3115.5589   -2657.7646    879.35249    12118.945 
   91100    299.55656    233.10648   -3103.5492   -2657.9815    1212.7042     12120.12 
   91150    299.91767    233.08296   -3102.7654   -2656.6606    1233.7387    12121.711 
   91200    309.12352    233.42121   -3114.0404   -2654.2426    936.00088     12123.76 
   91250    312.92256    233.56556   -3118.8519   -2653.4033    783.12695    12126.121 
   91300    305.48751     233.3095   -3110.3167   -2655.9272    939.31175    12128.716 
   91350    319.57316    233.86497   -3128.8323   -2653.4915     428.0175     12131.57 
   91400    301.43116    233.20039   -3106.6797   -2658.3237    987.91121    12134.517 
   91450    297.86243    233.15964   -3105.3213   -2662.2735    1054.8243    12137.779 
   91500    310.35223     233.5454   -3118.1799   -2656.5544    583.57359    12141.401 
   91550    310.94024    233.61364   -3120.4546   -2657.9546    475.21995    12145.148 
   91600    310.33256    233.51927    -3117.309   -2655.7128    456.83965    12148.953 
   91650    297.51241    233.19821    -3106.607   -2664.0799    723.01593    12152.831 
   91700    305.09791    233.48604   -3116.2012   -2662.3912    451.72397    12156.861 
   91750    297.32489    233.20453   -3106.8177   -2664.5695    527.88944    12160.964 
   91800    297.51362    233.29243   -3109.7476   -2667.2187    437.95421    12165.145 
   91850    302.01145    233.32345   -3110.7817   -2661.5626    384.98972     12169.37 
   91900    302.92982    233.42307   -3114.1024   -2663.5172    277.76437    12173.602 
   91950    297.35406    233.29601   -3109.8671   -2667.5755      307.692    12177.814 
   92000    297.32625    233.28095    -3109.365   -2667.1148    207.07321    12182.006 
   92050    302.77932    238.49859   -3116.6196   -2666.2583   -133.60748    12186.106 
   92100     302.6628    238.50605   -3116.8683   -2666.6803    -260.1188    12189.969 
   92150    296.90486    238.27314   -3109.1045   -2667.4811    -109.8191     12193.53 
   92200    301.03458    238.50035   -3116.6782   -2668.9121   -243.53189    12196.825 
   92250    294.16632    238.30079   -3110.0264   -2672.4763    -69.49708    12199.833 
   92300    300.89061    238.54234    -3118.078    -2670.526    -358.2667    12202.601 
   92350    302.11025    238.54859   -3118.2863   -2668.9202   -407.63103    12205.002 
   92400    285.02943    237.93719   -3097.9062   -2673.9466    136.05076    12207.029 
   92450    285.89757    237.98667   -3099.5556   -2674.3046    62.264857    12208.918 
   92500    292.82965    238.23244   -3107.7479    -2672.186   -147.35751    12210.651 
   92550    278.68701    237.69464   -3089.8214   -2675.2956    369.95152    12212.186 
   92600    293.72444    238.31691   -3110.5637   -2673.6709   -127.07693    12213.679 
   92650    292.19201    238.24848   -3108.2827   -2673.6692   -145.30175    12214.954 
   92700    295.14447    238.29456   -3109.8187   -2670.8137    -195.5299     12215.96 
   92750     285.4322    237.93472   -3097.8241   -2673.2653    128.05544    12216.696 
   92800    289.02473    238.05649   -3101.8831   -2671.9807   -6.9323922     12217.29 
   92850    293.76353    238.24486    -3108.162   -2671.2111   -231.96915    12217.706 
   92900    294.46548    238.25829   -3108.6096   -2670.6145   -265.59133    12217.821 
   92950    291.82178     238.1803   -3106.0099   -2671.9471    -202.2084    12217.607 
   93000    289.18276    238.08622    -3102.874   -2672.7365   -171.19293    12217.092 
   93050    300.34867     238.4017   -3113.3899    -2666.644   -456.15541    12216.284 
   93100    294.22863    238.16772   -3105.5907   -2667.9479   -172.58975    12215.076 
   93150    283.14494    237.77024   -3092.3414   -2671.1848    235.94982    12213.578 
   93200    281.68953    237.64452   -3088.1507   -2669.1589    313.01243    12212.011 
   93250    284.41745    237.83035   -3094.3451   -2671.2957    154.63128    12210.426 
   93300    307.06484     238.6777   -3122.5901   -2665.8544   -579.21335    12208.697 
   93350    302.60194    238.38776   -3112.9255    -2662.828    -340.1633    12206.523 
   93400    292.69215    237.98918   -3099.6395   -2664.2821    94.381101    12203.972 
   93450    297.66122    238.25183   -3108.3945    -2665.646   -52.499935     12201.25 
   93500    298.90743    238.28401   -3109.4669   -2664.8647   -38.356512    12198.322 
   93550    288.50248    237.94713   -3098.2377   -2669.1121    342.60973    12195.213 
   93600    303.39727    238.46223   -3115.4078   -2664.1274   -50.959111    12192.049 
   93650    304.93189    238.45741    -3115.247   -2661.6839   -44.622404    12188.693 
   93700    300.41954    238.19602    -3106.534   -2659.6827    149.15224    12185.121 
   93750    297.55443    238.07655   -3102.5515   -2659.9619    241.54363    12181.434 
   93800     297.9543    238.15947   -3105.3155   -2662.1311      293.399    12177.681 
   93850    295.00184    238.05254   -3101.7513   -2662.9584    531.94881    12173.895 
   93900    309.17078    238.62358   -3120.7858   -2660.9177    191.99148    12170.159 
   93950    297.47277    238.17598    -3105.866   -2663.3978    544.32091    12166.384 
   94000     292.7578    238.05511   -3101.8371   -2666.3821    665.00502    12162.692 
   94050    292.26749    243.05896   -3101.9655   -2667.2397    711.81707    12159.168 
   94100      295.774    243.25737    -3108.579   -2668.6376    525.75233    12155.851 
   94150    302.33533    243.47949    -3115.983   -2666.2821    324.34149    12152.641 
   94200    292.75066    243.08612   -3102.8708   -2667.4264    748.73518    12149.454 
   94250    290.59041    242.86573   -3095.5242    -2663.293    950.05158    12146.485 
   94300    309.53576    243.54171   -3118.0571   -2657.6462    347.45405    12143.813 
   94350    306.18649    243.45612    -3115.204   -2659.7748    459.20654    12141.189 
   94400    292.48746     242.9658   -3098.8599   -2663.8069    1031.3381    12138.659 
   94450    297.82397    243.17503   -3105.8343   -2662.8438    1039.9645     12136.47 
   94500    290.69157     242.8814   -3096.0465   -2663.6648    1264.7455    12134.693 
   94550    303.07779    243.32419   -3110.8065   -2660.0013     795.9313    12133.389 
   94600    316.55316    243.77605   -3125.8683   -2655.0195    398.88535    12132.333 
   94650    304.26895    243.28162   -3109.3874   -2656.8104    835.45125    12131.364 
   94700    300.62927    243.17289    -3105.763   -2658.5998    938.90276    12130.647 
   94750    291.44528    242.79682   -3093.2275   -2659.7247    1215.0918    12130.287 
   94800    299.60835    243.04682   -3101.5606   -2655.9158    1061.5016    12130.383 
   94850    312.00015    243.56852   -3118.9507   -2654.8741    689.90562    12130.856 
   94900    308.64034    243.44276   -3114.7588   -2655.6796    741.24801    12131.565 
   94950    306.73705    243.20968   -3106.9895   -2650.7414    857.57761     12132.51 
   95000    303.87013    243.12108   -3104.0359   -2652.0522    948.23102    12133.731 
   95050    306.36914    238.28459   -3109.4865   -2653.7856    800.93562    12135.273 
   95100    313.58773    238.55357   -3118.4522   -2652.0143    573.82905    12137.052 
   95150    301.55315    238.09484   -3103.1613   -2654.6239     919.1437    12138.986 
   95200    300.75044    238.18114   -3106.0379   -2658.6944    857.11047    12141.201 
   95250    300.68297    238.10792   -3103.5973   -2656.3542    789.71509    12143.721 
   95300    310.52107    238.37409   -3112.4697   -2650.5931    481.30626    12146.464 
   95350    299.65109    237.94379   -3098.1262   -2652.4179    866.78129    12149.312 
   95400    297.82428    237.94881   -3098.2938   -2655.3027    891.63321    12152.447 
   95450    300.48636    237.99013   -3099.6711   -2652.7205    828.18723    12155.875 
   95500    282.70448    237.44716   -3081.5719   -2661.0704    1420.9806    12159.619 
   95550    290.64432    237.70877   -3090.2922   -2657.9808    1180.4632     12163.93 
   95600    293.84063    237.70179   -3090.0595   -2652.9939    950.12618    12168.721 
   95650    311.30513     238.3561     -3111.87   -2648.8272    221.99991    12173.827 
   95700    304.51609    238.13957   -3104.6523   -2651.7077    364.33833    12178.935 
   95750     300.8415    238.00779   -3100.2597   -2652.7808    398.07474    12184.054 
   95800    309.30229     238.3683   -3112.2765   -2652.2128    7.6033311     12189.21 
   95850    299.55346    238.04889   -3101.6297   -2656.0666    266.92064    12194.239 
   95900    292.90673    237.88389   -3096.1297   -2660.4531    407.97233    12199.235 
   95950    293.25359    237.82313   -3094.1043   -2657.9118    418.38184    12204.285 
   96000    285.70579    237.56074   -3085.3581   -2660.3924     618.5971    12209.425 
   96050    312.29105    238.42405   -3114.1349   -2649.6256   -235.75376    12214.671 
   96100      300.446    238.09557   -3103.1856   -2656.2949    38.057293    12219.686 
   96150    293.86645    237.81295    -3093.765    -2656.661    231.28999     12224.54 
   96200    303.53264    238.09946   -3103.3154   -2651.8336   -172.37059    12229.331 
   96250    310.94185    238.38746   -3112.9153   -2650.4129   -504.71343    12233.858 
   96300    298.20801    237.86073   -3095.3578    -2651.796    -59.61704    12237.983 
   96350    287.06791    237.51324   -3083.7747   -2656.7829    243.95251    12241.898 
   96400    296.50829    237.81956   -3093.9854   -2652.9518   -83.040471    12245.737 
   96450    304.84158     238.0605   -3102.0166   -2648.5878   -402.23225    12249.358 
   96500    303.41733     238.0382   -3101.2732   -2649.9629   -415.64889    12252.592 
   96550    305.56501      238.138      -3104.6   -2650.0952   -498.05767    12255.406 
   96600    308.94001    238.20598   -3106.8662   -2647.3413   -589.16426    12257.768 
   96650    300.78913    237.80333   -3093.4443   -2646.0433   -267.47998    12259.649 
   96700    302.29105    237.84478   -3094.8262   -2645.1911   -262.53343    12261.176 
   96750    297.13537    237.64204    -3088.068   -2646.1016   -95.224682    12262.389 
   96800    302.40531    237.79514   -3093.1712   -2643.3662   -203.92028     12263.35 
   96850    291.87273    237.38056   -3079.3519   -2645.2134    153.44013    12264.043 
   96900    295.08766    237.48993   -3082.9977   -2644.0772    105.97035    12264.598 
   96950    310.40498     237.9815   -3099.3835   -2637.6796   -327.90102    12264.995 
   97000     291.0969    237.34332   -3078.1107   -2645.1261    238.21739    12265.084 
   97050    299.93032    237.65166   -3088.3886    -2642.265     18.59091    12265.051 
   97100      293.616    237.41511   -3080.5037   -2643.7721     206.4379    12264.856 
   97150    286.24638    237.15651   -3071.8838    -2646.114    399.65021    12264.596 
   97200     290.4269    237.26665   -3075.5552   -2643.5672    266.43251    12264.354 
   97250    300.02916    237.48274   -3082.7579   -2636.4872    37.880781    12264.059 
   97300     300.2921    237.54485   -3084.8283   -2638.1666    11.185106    12263.616 
   97350    307.88328    237.76283   -3092.0942   -2634.1412     -227.455    12262.969 
   97400    309.42083    237.71547   -3090.5157   -2630.2757   -239.17849    12262.012 
   97450    310.34707    237.70724   -3090.2413   -2628.6236   -134.46626    12260.726 
   97500    311.42619    237.80422    -3093.474   -2630.2511   -106.18387    12259.177 
   97550    307.57218    237.70055   -3090.0184   -2632.5281    85.991877    12257.363 
   97600    292.41909    237.14875   -3071.6248   -2636.6736    635.19533    12255.418 
   97650    298.46279    237.28506   -3076.1686   -2632.2278    535.31872    12253.595 
   97700    305.64641    237.47258   -3082.4193   -2627.7935    264.63285    12251.867 
   97750    319.51171    237.86896   -3095.6321   -2620.3827   -243.86507    12250.062 
   97800    316.69563    237.74986    -3091.662   -2620.6013   -131.03427    12247.933 
   97850    312.06357    237.52664   -3084.2214   -2620.0505    134.54594    12245.534 
   97900     320.7672    237.85942   -3095.3139   -2618.1969   -45.210828    12242.983 
   97950    316.94951    237.67415   -3089.1383   -2617.6999     131.3007    12240.216 
   98000    308.11358    237.35413   -3078.4709   -2620.1753    452.24549    12237.312 
   98050    304.42179    242.27363   -3075.7876   -2622.9833    590.52434    12234.446 
   98100    304.68382    242.34397   -3078.1323   -2624.9383    653.06767     12231.71 
   98150    313.07627    242.55068   -3085.0228   -2619.3456    587.19993    12229.129 
   98200    311.15805    242.54504   -3084.8346   -2622.0106    757.34867    12226.698 
   98250    294.77512    241.95679   -3065.2262   -2626.7706    1321.2579    12224.515 
   98300    301.90918    242.20365   -3073.4552   -2624.3881    1103.1705    12222.823 
   98350     322.2337    242.89967   -3096.6558   -2617.3576    380.42936    12221.529 
   98400    317.79444    242.69004   -3089.6681    -2616.973    516.23362    12220.305 
   98450    302.05963    242.14292   -3071.4305   -2622.1397    999.98627    12219.205 
   98500    313.52771    242.48298   -3082.7661   -2616.4174    668.07609    12218.412 
   98550    312.33798     242.4206   -3080.6866   -2616.1075    756.11878     12217.83 
   98600    307.87349    242.31319   -3077.1062   -2619.1677    886.78404    12217.487 
   98650    313.74561    242.65947   -3088.6489   -2621.9761    681.69916    12217.418 
   98700    307.37225    242.38509    -3079.503   -2622.3101     952.2548    12217.569 
   98750    292.70189    241.80191   -3060.0638   -2624.6919    1435.5648    12218.078 
   98800    307.83335    242.37453    -3079.151   -2621.2722    949.68356    12219.133 
   98850    314.25452    242.53674   -3084.5581   -2617.1283    770.68441    12220.573 
   98900    308.84341    242.31084   -3077.0281   -2617.6469    971.33828    12222.277 
   98950    298.71076    242.01568   -3067.1893   -2622.8796    1180.6168    12224.337 
   99000    302.39769    242.22279   -3074.0931   -2624.2994    901.22368    12226.856 
   99050    300.80965    247.22392   -3074.1307   -2626.6991    846.23872    12229.733 
   99100    303.28857     247.3084   -3076.9468    -2625.828    710.51217    12232.927 
   99150    307.41494    247.46274   -3082.0914    -2624.835    459.77947    12236.363 
   99200    313.21648    247.66531   -3088.8435   -2622.9578    259.02369    12239.904 
   99250    302.34457    247.24484   -3074.8281   -2625.1135    637.06329    12243.483 
   99300    307.83634     247.5946   -3086.4867   -2628.6035    410.45035    12247.212 
   99350    297.23259    247.14864   -3071.6214   -2629.5104    744.98941    12251.073 
   99400    297.24168    247.14134    -3071.378   -2629.2535    705.28722    12255.183 
   99450     296.2814    247.07903   -3069.3011    -2628.605    663.99776    12259.559 
   99500    303.94004    247.35392   -3078.4641   -2626.3763    295.54875    12264.144 
   99550    301.40719    247.29085   -3076.3615   -2628.0412    179.86091    12268.769 
   99600    300.85448     247.3215   -3077.3835   -2629.8852    41.005305    12273.353 
   99650    296.29093    247.15829    -3071.943   -2631.2327     185.7608    12277.848 
   99700    285.12604    246.81223   -3060.4075   -2636.3041    520.26027    12282.316 
   99750    280.28282    246.64902   -3054.9672   -2638.0678    538.24362    12286.931 
   99800    302.08092    247.54569   -3084.8565    -2635.534   -334.20262    12291.667 
   99850    297.25183    247.37396    -3079.132   -2636.9924    -251.9706    12296.145 
   99900    285.89255    246.96595   -3065.5315    -2640.288    66.247533    12300.364 
   99950    290.09186    247.13621   -3071.2071   -2639.7174   -143.73006    12304.459 
  100000    297.57152    247.45057   -3081.6857   -2639.0707   -466.73442    12308.323 
Loop time of 26.8291 on 1 procs for 100000 steps with 500 atoms

Performance: 322.038 ns/day, 0.075 hours/ns, 3727.296 timesteps/s
99.9% CPU use with 1 MPI tasks x 1 OpenMP threads

MPI task timing breakdown:
Section |  min time  |  avg time  |  max time  |%varavg| %total
---------------------------------------------------------------
Pair    | 22.028     | 22.028     | 22.028     |   0.0 | 82.10
Bond    | 0.0077703  | 0.0077703  | 0.0077703  |   0.0 |  0.03
Neigh   | 0.5286     | 0.5286     | 0.5286     |   0.0 |  1.97
Comm    | 0.77063    | 0.77063    | 0.77063    |   0.0 |  2.87
Output  | 0.018604   | 0.018604   | 0.018604   |   0.0 |  0.07
Modify  | 2.7344     | 2.7344     | 2.7344     |   0.0 | 10.19
Other   |            | 0.7411     |            |       |  2.76

Nlocal:    500 ave 500 max 500 min
Histogram: 1 0 0 0 0 0 0 0 0 0
Nghost:    1576 ave 1576 max 1576 min
Histogram: 1 0 0 0 0 0 0 0 0 0
Neighs:    14406 ave 14406 max 14406 min
Histogram: 1 0 0 0 0 0 0 0 0 0

Total # of neighbors = 14406
Ave neighs/atom = 28.812
Ave special neighs/atom = 0
Neighbor list builds = 635
Dangerous builds = 0

write_data      ${walker}/final_restart_file
write_data      5/final_restart_file

quit
