LAMMPS (19 May 2017)
Processor partition = 5
  using 1 OpenMP thread(s) per MPI task
# gREM variables
variable        lambda world 1000 1005 1010 1015 1020 1025 1030 1035 1040 1045 1050 1055 1060 1065 1070 1075
variable        walker world 0 1 2 3 4 5 6 7 8 9 10 11 12 13 14 15
variable        replica world 1 0 3 9 12 2 5 13 10 4 7 14 6 15 8 11

variable        T0 equal 300.0
variable        press equal 0.0

units           real
atom_style      full
pair_style      lj/cut 5.0

# LJ particles
read_data       ${walker}/restart_file
read_data       5/restart_file
  orthogonal box = (1.0734 1.0734 1.0734) to (23.9266 23.9266 23.9266)
  1 by 1 by 1 MPI processor grid
  reading atoms ...
  500 atoms
  reading velocities ...
  500 velocities
  0 = max # of 1-2 neighbors
  0 = max # of 1-3 neighbors
  0 = max # of 1-4 neighbors
  1 = max # of special neighbors

#dump            dump all xyz 1000 ${walker}/dump.xyz

fix             fxnpt all npt temp ${T0} ${T0} 1000.0 iso ${press} ${press} 10000.0
fix             fxnpt all npt temp 300 ${T0} 1000.0 iso ${press} ${press} 10000.0
fix             fxnpt all npt temp 300 300 1000.0 iso ${press} ${press} 10000.0
fix             fxnpt all npt temp 300 300 1000.0 iso 0 ${press} 10000.0
fix             fxnpt all npt temp 300 300 1000.0 iso 0 0 10000.0
fix             fxgREM all grem ${lambda} -.03 -30000 fxnpt
fix             fxgREM all grem 1025 -.03 -30000 fxnpt
thermo_modify   press fxgREM_press

thermo          50
thermo_style    custom step temp f_fxgREM pe etotal press vol
WARNING: New thermo_style command, previous thermo_modify settings will be lost (../output.cpp:705)
timestep        1.0

temper/grem     100000 1000 ${lambda} fxgREM fxnpt 10294 98392 ${walker}
temper/grem     100000 1000 1025 fxgREM fxnpt 10294 98392 ${walker}
temper/grem     100000 1000 1025 fxgREM fxnpt 10294 98392 5
Neighbor list info ...
  update every 1 steps, delay 10 steps, check yes
  max neighbors/atom: 2000, page size: 100000
  master list distance cutoff = 7
  ghost atom cutoff = 7
  binsize = 3.5, bins = 7 7 7
  1 neighbor lists, perpetual/occasional/extra = 1 0 0
  (1) pair lj/cut, perpetual
      attributes: half, newton on
      pair build: half/bin/newton
      stencil: half/bin/3d/newton
      bin: standard
Per MPI rank memory allocation (min/avg/max) = 5.723 | 5.723 | 5.723 Mbytes
Step Temp f_fxgREM PotEng TotEng Press Volume 
       0    295.40983    221.56182   -3218.7273   -2779.3276   -237.90327    11935.519 
      50    277.56003    220.93011   -3197.6703   -2784.8208    223.63112    11935.386 
     100    284.01102    221.20564   -3206.8548   -2784.4099   -28.447852    11935.102 
     150    287.54954    221.30428   -3210.1426   -2782.4345   -50.238061    11934.591 
     200     273.2498    220.79002   -3193.0006   -2786.5622     375.2783    11933.864 
     250    273.59164    220.89148   -3196.3828    -2789.436    313.65408    11933.077 
     300    267.09319    220.60269   -3186.7563   -2789.4754    559.05915    11932.271 
     350    280.15669    220.89979   -3196.6596   -2779.9477    244.73242    11931.516 
     400    277.66212    220.80425   -3193.4749   -2780.4736    335.76031    11930.695 
     450    279.84591     220.8076   -3193.5866    -2777.337    328.72865    11929.827 
     500    287.27662    221.06624    -3202.208   -2774.9058    167.38675    11928.908 
     550    276.23667    220.66381   -3188.7937   -2777.9126    598.94587    11927.887 
     600    280.58675     220.8392     -3194.64   -2777.2885    510.40175    11926.918 
     650    274.67246    220.61111   -3187.0369   -2778.4824     700.7949    11926.034 
     700    274.16323    220.49402   -3183.1339   -2775.3369    776.48127    11925.306 
     750    281.35865    220.73229   -3191.0764   -2772.5768    613.61288    11924.757 
     800    284.53914    220.76869   -3192.2897   -2769.0593    644.38617    11924.319 
     850    285.30416    220.72062   -3190.6872   -2766.3189      688.045    11923.995 
     900    286.13877    220.63551   -3187.8504   -2762.2406    726.06662    11923.816 
     950    293.24401    220.84625   -3194.8752   -2758.6969    512.53585    11923.769 
    1000    283.94036    220.46193   -3182.0643   -2759.7245    790.20793      11923.8 
    1050    290.23546    215.68592   -3189.5307   -2757.8275    615.19176    11923.987 
    1100    290.65787    215.68007   -3189.3357   -2757.0042    664.70035    11924.266 
    1150    283.36929    215.39879   -3179.9597   -2758.4694    900.40356    11924.671 
    1200    283.84213    215.41613   -3180.5377   -2758.3441    920.51462     11925.29 
    1250    284.28238    215.37555   -3179.1851   -2756.3367    899.96225    11926.167 
    1300    288.96457    215.38097   -3179.3658   -2749.5529    816.12545    11927.284 
    1350     295.7074    215.53401   -3184.4671   -2744.6247    748.71007    11928.573 
    1400    295.25313    215.56175   -3185.3917   -2746.2251    712.23976    11930.014 
    1450    295.89007    215.52466   -3184.1552   -2744.0412    620.50086    11931.584 
    1500    303.46226    215.71234   -3190.4114   -2739.0343    438.99276    11933.232 
    1550    307.11983    215.81642   -3193.8805   -2737.0631    410.74795    11934.863 
    1600    294.66778    215.38829   -3179.6096   -2741.3136    730.73372    11936.473 
    1650    288.37676    215.18771   -3172.9235   -2743.9849    894.27509    11938.221 
    1700    303.98731    215.69636   -3189.8786   -2737.7205    436.05673    11940.148 
    1750     299.0086    215.47151   -3182.3835   -2737.6309    539.73677    11942.087 
    1800    308.28682    215.73288   -3191.0958   -2732.5426    334.89842    11944.033 
    1850    295.37067    215.30439   -3176.8129   -2737.4714    766.68229    11945.951 
    1900    285.73143    215.01408   -3167.1361   -2742.1323     1092.158    11948.019 
    1950    294.52468     215.2339   -3174.4633   -2736.3802    832.40049    11950.377 
    2000    293.33686     215.2283   -3174.2765   -2737.9602     771.2855    11952.941 
    2050    305.84178    215.53444   -3184.4813   -2729.5648    457.94365    11955.659 
    2100    295.57463    215.23755    -3174.585   -2734.9401    804.12537    11958.403 
    2150     298.1053    215.30498   -3176.8326   -2733.4235    754.85567    11961.304 
    2200    301.57367    215.39734   -3179.9112   -2731.3432    564.01921    11964.368 
    2250    295.78569    215.20184   -3173.3946   -2733.4358     701.0547      11967.5 
    2300    309.09917     215.5703   -3185.6767   -2725.9151    324.82569    11970.717 
    2350    294.89322    215.21215   -3173.7383   -2735.1069    625.30386    11973.898 
    2400    297.76626    215.25958   -3175.3193   -2732.4145    525.28275    11977.132 
    2450     299.4125    215.28315   -3176.1048   -2730.7514    393.27745    11980.402 
    2500    307.25589    215.57558   -3185.8526   -2728.8327    104.65564    11983.619 
    2550    306.30917    215.52829   -3184.2763   -2728.6646    112.82069    11986.674 
    2600    291.11003    215.03704   -3167.9014   -2734.8973    580.49086    11989.563 
    2650    290.11141    215.00886    -3166.962   -2735.4432     547.6395    11992.472 
    2700    315.45524    215.68005   -3189.3349   -2720.1191   -191.67785    11995.397 
    2750    299.63757    215.27801   -3175.9336   -2730.2454    243.80643    11998.031 
    2800    291.96805    214.96176   -3165.3919   -2731.1116    516.24599    12000.515 
    2850    294.03898    215.06267   -3168.7555   -2731.3949    389.26759    12003.011 
    2900    294.04466     214.9935     -3166.45   -2729.0809    405.11556    12005.481 
    2950    301.43905    215.18738   -3172.9126   -2724.5448    204.19587    12007.906 
    3000    292.95608    214.90854    -3163.618    -2727.868    442.12735    12010.228 
    3050    296.08959    219.98301   -3166.1002   -2725.6894    399.79365    12012.524 
    3100    288.77809    219.76983   -3158.9943   -2729.4588    598.68647    12014.817 
    3150    298.74179    220.06115   -3168.7051   -2724.3493    286.15202    12017.163 
    3200    304.79324     220.2268   -3174.2268   -2720.8699    71.971347    12019.452 
    3250    310.00844     220.3655     -3178.85   -2717.7359   -10.832423    12021.533 
    3300    289.54116       219.61   -3153.6668   -2722.9963    634.55505    12023.413 
    3350    307.73728    220.23703   -3174.5675   -2716.8316    57.940433    12025.322 
    3400    289.94255    219.62704   -3154.2348   -2722.9673    563.56695    12027.092 
    3450    287.14863    219.42922   -3147.6408   -2720.5289    745.89267    12028.905 
    3500     308.3289    220.12606   -3170.8688   -2712.2529     115.2292    12030.843 
    3550    301.78999    219.83326   -3161.1088    -2712.219    309.54048     12032.64 
    3600    280.57569    219.16595   -3138.8649   -2721.5298    858.40317    12034.387 
    3650    303.80043    219.90755   -3163.5849   -2711.7048    87.601856    12036.293 
    3700    304.75227    219.84837   -3161.6125   -2708.3166    25.188663    12038.061 
    3750    305.87441     219.9262   -3164.2066   -2709.2416    55.043152    12039.589 
    3800     286.3748    219.35064   -3145.0214   -2719.0605    629.32066    12040.951 
    3850     293.0583    219.44377   -3148.1256   -2712.2236    537.05045    12042.393 
    3900     309.3034    219.94488   -3164.8293    -2704.764    136.17325    12043.869 
    3950    303.32306    219.66121   -3155.3736   -2704.2036    363.42427     12045.21 
    4000    308.62096    219.83335   -3161.1117   -2702.0614    260.94666     12046.48 
    4050    303.14721    214.67479   -3155.8263   -2704.9179    452.17182    12047.654 
    4100    299.05344    214.52579   -3150.8598   -2706.0404    498.42086    12048.804 
    4150    304.49084    214.58202   -3152.7341   -2699.8271    345.48064    12049.975 
    4200    304.32598    214.58088   -3152.6959    -2700.034    336.71118    12051.071 
    4250    298.58062    214.40743   -3146.9144   -2702.7983    501.39639    12052.103 
    4300    313.42779    214.92942   -3164.3139   -2698.1138    83.750891    12053.114 
    4350    306.38867    214.69889   -3156.6297   -2700.8998     239.9943    12053.943 
    4400    296.63838    214.33204   -3144.4014   -2703.1742    472.81058    12054.646 
    4450    314.17536    214.85145   -3161.7149   -2694.4029   -23.180603      12055.3 
    4500    297.70251      214.235   -3141.1667   -2698.3568    479.49381    12055.752 
    4550    302.88131    214.40518   -3146.8392   -2696.3262    412.27596    12056.164 
    4600    307.43408    214.47937   -3149.3124   -2692.0275     289.1131    12056.548 
    4650     305.9092     214.4277   -3147.5899   -2692.5731    328.64906    12056.823 
    4700     304.1282    214.29371   -3143.1238   -2690.7562    405.39833    12057.013 
    4750    320.65891    214.78379   -3159.4598    -2682.504    -122.4275    12057.114 
    4800    320.77695    214.87068   -3162.3559   -2685.2245   -179.28041     12056.91 
    4850    305.59479    214.33829   -3144.6095   -2690.0604    426.62197    12056.366 
    4900    307.73745    214.41947   -3147.3155   -2689.5794    555.86614    12055.746 
    4950    305.28693    214.30755   -3143.5851   -2689.4939    625.03272     12055.16 
    5000    318.48804    214.73931   -3157.9769   -2684.2501    246.14488    12054.605 
    5050    310.99508    219.48296    -3149.432   -2686.8504    444.60778    12053.961 
    5100    304.75835    219.34472    -3144.824    -2691.519    655.63293    12053.297 
    5150    294.86445    218.96161   -3132.0536   -2693.4651    933.32345    12052.755 
    5200    329.49457    219.99989   -3166.6631   -2676.5649    42.200944    12052.365 
    5250    314.68336    219.54495   -3151.4983   -2683.4307    399.79053    12051.823 
    5300    310.10378    219.39603   -3146.5345   -2685.2786    593.10749     12051.23 
    5350    301.76572    219.15739   -3138.5796   -2689.7259    882.33995     12050.73 
    5400    314.50366    219.61489   -3153.8297   -2686.0293    442.43538    12050.413 
    5450     316.8226    219.67945   -3155.9817   -2684.7321    355.93328    12050.097 
    5500    312.70851    219.54479   -3151.4929   -2686.3627    594.25892    12049.723 
    5550    300.92939    219.15866   -3138.6219   -2691.0122    1009.4302    12049.425 
    5600     299.2149    219.10962   -3136.9874   -2691.9279    1029.1052    12049.406 
    5650    315.94631    219.61631   -3153.8769   -2683.9307    550.99953    12049.656 
    5700      304.686    219.25563   -3141.8543   -2688.6569    790.54458    12049.997 
    5750    316.08773    219.66856   -3155.6186   -2685.4621    395.40396    12050.476 
    5800    317.18534    219.84449   -3161.4829   -2689.6938    296.84661    12050.941 
    5850    309.98464    219.54486   -3151.4952   -2690.4165    536.54719     12051.33 
    5900    307.28981    219.46729   -3148.9095   -2691.8392    562.19673    12051.744 
    5950     310.9016    219.59261   -3153.0871   -2690.6445    481.62982      12052.2 
    6000    296.20437    219.15944   -3138.6481   -2698.0665    845.18835     12052.71 
    6050    309.50807    224.66648   -3155.5492   -2695.1794    346.45024    12053.374 
    6100    294.84687    224.27157   -3142.3856   -2703.8233    623.92464    12054.063 
    6150    286.71952    223.97585   -3132.5283   -2706.0548    851.25227    12054.845 
    6200    297.21121    224.40321   -3146.7736   -2704.6944    373.78413    12055.828 
    6250    307.13861    224.65676   -3155.2252   -2698.3798   -21.672082    12056.805 
    6300     289.3696    224.05808   -3135.2692   -2704.8539    523.18403    12057.596 
    6350    292.19472    224.30075   -3143.3584   -2708.7409    365.61439    12058.401 
    6400    298.63992    224.61861   -3153.9537   -2709.7494    97.563127    12059.166 
    6450    295.34188    224.56022   -3152.0074   -2712.7087    149.58585    12059.794 
    6500    301.78824    224.81283   -3160.4275   -2711.5404   -79.174946    12060.262 
    6550    293.07909    224.62178   -3154.0595   -2718.1265    101.52285    12060.485 
    6600    297.86016    224.82106   -3160.7021   -2717.6577   -45.969705    12060.506 
    6650    287.97456     224.5197   -3150.6567   -2722.3163    256.34179    12060.319 
    6700    295.50297    224.85333   -3161.7776   -2722.2393     38.95113    12060.009 
    6750     283.4183    224.48443   -3149.4809   -2727.9177    337.16324    12059.541 
    6800    285.69632    224.67781   -3155.9269   -2730.9752    171.07629    12059.005 
    6850     285.1535    224.63905   -3154.6351   -2730.4909    176.93876    12058.356 
    6900    290.43517    224.89382   -3163.1274   -2731.1271   -33.234201    12057.578 
    6950    293.04824    224.96703   -3165.5678   -2729.6807   -79.032698    12056.565 
    7000    294.73389     224.9587   -3165.2899   -2726.8955   -95.815722    12055.293 
    7050    289.09145    229.90886   -3163.6287   -2733.6271   -26.571006    12053.758 
    7100    284.74982    229.82879   -3160.9598    -2737.416     86.52702    12051.997 
    7150     283.9295    229.79487   -3159.8291   -2737.5055    92.497999    12050.071 
    7200    281.36518    229.74079   -3158.0264    -2739.517    141.55198    12047.996 
    7250    277.46828    229.55477   -3151.8257   -2739.1127    268.94463    12045.805 
    7300    272.60961    229.44184   -3148.0615   -2742.5753    393.18542    12043.564 
    7350    281.81843    229.68704   -3156.2348   -2737.0513    75.392408    12041.302 
    7400    282.41807     229.6628   -3155.4267   -2735.3512    135.08803    12038.897 
    7450    272.58503    229.25934   -3141.9781   -2736.5285    533.25346    12036.389 
    7500    287.79497    229.88872   -3162.9574   -2734.8842     64.75861    12033.904 
    7550    282.00279    229.66035   -3155.3449   -2735.8871    250.67678    12031.291 
    7600    281.45663    229.65586   -3155.1953   -2736.5499    283.73925    12028.593 
    7650    296.40082    230.26941   -3175.6469   -2734.7732   -168.75038    12025.805 
    7700    277.63349    229.63807   -3154.6024   -2741.6436    439.37969    12022.784 
    7750     275.6441    229.47514   -3149.1713   -2739.1716     656.4693    12019.756 
    7800    292.85066    230.08301   -3169.4337   -2733.8406    198.18196    12016.827 
    7850    288.14991    229.97148   -3165.7159   -2737.1147    332.64909    12013.837 
    7900    289.52974     229.9483   -3164.9433   -2734.2898    412.91315    12010.799 
    7950    281.27811    229.61368   -3153.7892   -2735.4093    798.65571    12007.784 
    8000    284.67791    229.60799   -3153.5997   -2730.1629    825.50013     12004.96 
    8050    302.76804    230.25575   -3175.1917   -2724.8472    293.09208    12002.323 
    8100    285.29963    229.76998   -3158.9994   -2734.6378    753.59868    11999.679 
    8150    280.67043     229.4627   -3148.7565   -2731.2805    976.57595    11997.207 
    8200    294.66869    229.95446   -3165.1487   -2726.8514    607.11984    11995.017 
    8250    292.59352    229.83622   -3161.2072   -2725.9965    730.90894    11992.961 
    8300    289.42495    229.69666   -3156.5552   -2726.0575    815.40635    11991.069 
    8350    293.84129    229.78332   -3159.4441   -2722.3774    789.77244     11989.39 
    8400    290.61021    229.67559   -3155.8529   -2723.5922    1040.6409    11987.928 
    8450    297.72022    229.91671   -3163.8902   -2721.0539    806.74612    11986.774 
    8500     292.1889    229.76528   -3158.8428    -2724.234    949.55325    11985.858 
    8550      284.901    229.42474   -3147.4914   -2723.7228    1244.5758    11985.247 
    8600    295.44704    229.72775   -3157.5917   -2718.1366    950.47944    11985.051 
    8650    304.00995    229.90347   -3163.4491   -2711.2573    758.73289    11985.137 
    8700    287.76224    229.19922   -3139.9739   -2711.9493    1356.1196    11985.469 
    8750    305.48083    229.80857   -3160.2857   -2705.9062    869.95919    11986.246 
    8800    297.88842    229.60229   -3153.4096   -2710.3232    1047.0148    11987.328 
    8850     302.5673    229.79768   -3159.9225   -2709.8766    897.33975    11988.734 
    8900    298.98235    229.69679   -3156.5598   -2711.8462    978.95127    11990.443 
    8950    294.43686    229.45837   -3148.6123   -2710.6598    1189.3972    11992.462 
    9000    294.71764    229.44629   -3148.2097   -2709.8396    1186.9572      11994.9 
    9050    301.32926    229.69754   -3156.5846   -2708.3801    923.27386    11997.768 
    9100    312.66248    229.95397   -3165.1322   -2700.0705    646.05742    12000.918 
    9150    309.32278    229.89289   -3163.0964   -2703.0022    761.37117    12004.228 
    9200    315.42039    230.03205   -3167.7351   -2698.5711    576.25478    12007.731 
    9250    311.40272    229.79262   -3159.7539   -2696.5659    641.73572    12011.349 
    9300       294.52    229.30396   -3143.4653   -2705.3891      1136.11    12015.121 
    9350    281.12095    228.82203   -3127.4009   -2709.2548    1443.8091    12019.317 
    9400     296.6452    229.34757   -3144.9189   -2703.6816    869.25604    12024.053 
    9450    302.01198    229.49003   -3149.6675   -2700.4476    657.23688    12029.091 
    9500    291.19621     229.0228   -3134.0933    -2700.961    989.60343     12034.33 
    9550    299.71203    229.25406   -3141.8021   -2696.0032    721.74053    12039.885 
    9600    304.69458    229.44361   -3148.1202   -2694.9101    529.95152    12045.657 
    9650    295.56729    229.15718   -3138.5725   -2698.9386    756.53272    12051.555 
    9700     292.2742    229.04308   -3134.7693   -2700.0335    847.33685    12057.667 
    9750     298.5072    229.24122    -3141.374   -2697.3672    572.93845    12064.052 
    9800    311.97965    229.62219   -3154.0729   -2690.0268     92.69934    12070.568 
    9850     311.4339    229.61316    -3153.772   -2690.5377    23.821917    12076.986 
    9900    299.19165     229.1444   -3138.1468   -2693.1219    440.75999    12083.251 
    9950    281.50624    228.54923   -3118.3078   -2699.5886    940.08585    12089.561 
   10000    286.75732    228.73313   -3124.4378    -2697.908    718.86756    12096.176 
   10050    285.00147    228.69531    -3123.177   -2699.2589    681.44968    12103.047 
   10100    309.88378     229.5507   -3151.6898   -2690.7612   -135.44766     12110.06 
   10150    301.68743     229.2741   -3142.4699   -2693.7327     39.25296    12116.891 
   10200    287.97707    228.76524   -3125.5081   -2697.1641    314.21974    12123.587 
   10250    313.92053    229.54197   -3151.3991   -2684.4661   -604.69162    12130.201 
   10300    289.87934    228.68366   -3122.7887   -2691.6152    37.209383    12136.403 
   10350    281.33083    228.38706   -3112.9019   -2694.4436    277.61501    12142.427 
   10400    300.72214    229.01772   -3133.9239   -2686.6225   -296.44406    12148.373 
   10450    283.83696    228.43372   -3114.4572   -2692.2712    157.02961    12154.065 
   10500    297.55278    228.89291   -3129.7638   -2687.1765   -355.99556    12159.597 
   10550    301.57292    229.06477   -3135.4922   -2686.9253    -553.4225    12164.777 
   10600    291.92249    228.74418   -3124.8059   -2690.5933   -251.77546    12169.505 
   10650    297.01261    228.88577   -3129.5257   -2687.7419   -436.94522    12173.882 
   10700    302.30148    228.91892   -3130.6305     -2680.98   -549.12187    12177.835 
   10750    287.56746    228.41419   -3113.8063   -2686.0715   -89.693874    12181.342 
   10800     293.4436    228.69228    -3123.076   -2686.6008   -330.43054    12184.574 
   10850    292.43699    228.60872   -3120.2906   -2685.3127       -287.7    12187.453 
   10900    291.57472    228.60078    -3120.026   -2686.3307   -291.56398    12189.978 
   10950    304.27876    229.03755   -3134.5851   -2681.9935   -790.05609    12192.113 
   11000    297.61369    228.74446   -3124.8154   -2682.1376   -639.57181    12193.673 
   11050    301.57957    228.85296    -3128.432   -2679.8552   -682.61617    12194.666 
   11100    293.94542    228.54788   -3118.2628   -2681.0412   -339.98091    12195.106 
   11150    301.16919    228.83869   -3127.9565   -2679.9901   -543.47948    12195.117 
   11200    300.49331    228.86502   -3128.8339   -2681.8729   -527.01068    12194.621 
   11250    297.24406    228.78891   -3126.2969   -2684.1689   -415.10245    12193.629 
   11300    286.31634    228.44738   -3114.9127   -2689.0389   -98.995894    12192.216 
   11350    295.74324    228.67038    -3122.346   -2682.4504   -283.71348    12190.495 
   11400    298.41083    228.65893   -3121.9643   -2678.1008   -292.90004    12188.409 
   11450    295.00608    228.50017   -3116.6722    -2677.873   -200.29104     12185.95 
   11500    302.28243    228.72001   -3124.0003   -2674.3781   -432.00811    12183.133 
   11550    297.86485    228.51531    -3117.177   -2674.1256   -200.03695    12179.862 
   11600    300.37725    228.57771   -3119.2569   -2672.4685   -187.92534    12176.243 
   11650    303.93249    228.71919    -3123.973   -2671.8965   -240.32522    12172.276 
   11700    299.71192    228.55364   -3118.4547   -2672.6559   -109.97222    12167.954 
   11750     308.2356    228.90501   -3130.1671     -2671.69   -354.86235    12163.301 
   11800    299.42867    228.51417   -3117.1392   -2671.7617    39.919871    12158.242 
   11850    294.86482    228.41365   -3113.7883   -2675.1992     316.8711    12152.955 
   11900    306.59084    228.75565   -3125.1884   -2669.1578    166.25947     12147.57 
   11950    294.71543    228.31165   -3110.3883   -2672.0215    571.93267    12142.074 
   12000    290.12594    228.15391   -3105.1304   -2673.5901    742.91082    12136.634 
   12050    315.37433    234.07541   -3135.8469   -2666.7515   0.20732822    12131.309 
   12100    316.98101    234.05169   -3135.0565   -2663.5712    123.88904    12125.793 
   12150    302.83689    233.47474   -3115.8246   -2665.3777    751.18047     12120.12 
   12200    306.44051    233.64166   -3121.3887   -2665.5817    574.54186    12114.568 
   12250    305.34726    233.62685   -3120.8951   -2666.7142    550.14733    12109.113 
   12300    306.18023    233.67209   -3122.4032   -2666.9833    591.86977    12103.724 
   12350    306.53635    233.72144   -3124.0479   -2668.0984    608.20875    12098.415 
   12400    309.92884    233.87776   -3129.2587   -2668.2631      581.521    12093.188 
   12450    308.47128    233.78399   -3126.1329   -2667.3053    739.98944    12088.047 
   12500    301.31169    233.52474   -3117.4914   -2669.3131    1023.9835    12083.069 
   12550    309.20493    233.75713   -3125.2378   -2665.3189    845.47052    12078.377 
   12600    322.55914    234.20639   -3140.2131   -2660.4308    481.82256    12073.888 
   12650    300.99155    233.53807   -3117.9356   -2670.2335    1152.9263    12069.477 
   12700    304.84299    233.64355   -3121.4515   -2668.0207    1059.8943    12065.407 
   12750    320.40689       234.21   -3140.3335   -2663.7525     609.3504    12061.657 
   12800     295.0988    233.30216    -3110.072   -2671.1349    1557.5086    12058.087 
   12850     310.7178    233.87964   -3129.3214   -2667.1522    1113.8266    12055.039 
   12900     327.4846    234.43115   -3147.7049   -2660.5964    515.46176    12052.362 
   12950    306.32323    233.72567    -3124.189   -2668.5564    1204.2991    12049.802 
   13000    304.29601    233.73126   -3124.3755   -2671.7582    1362.6191    12047.627 
   13050    321.06709    229.30643   -3143.5476   -2665.9846    813.07249    12045.925 
   13100    314.26918    229.11125   -3137.0415     -2669.59    939.45713    12044.461 
   13150    305.47588    228.81678   -3127.2259   -2672.8537    1238.5479    12043.269 
   13200     300.9482    228.62361   -3120.7868   -2673.1492    1412.3777    12042.515 
   13250    327.63299    229.59454   -3153.1514   -2665.8221    543.24694    12042.224 
   13300    328.12864    229.71601   -3157.2004   -2669.1339    449.39203    12042.041 
   13350    304.49362    228.92024   -3130.6746   -2677.7634    1148.0137    12041.914 
   13400    309.80775    229.16314   -3138.7715   -2677.9559    949.28305    12042.105 
   13450     289.0887    228.51825   -3117.2749   -2687.2774    1503.6715    12042.652 
   13500    295.44144    228.79671    -3126.557   -2687.1103    1279.6082    12043.744 
   13550    291.52654    228.76803    -3125.601   -2691.9774     1322.986    12045.341 
   13600    306.95941    229.48069   -3149.3562   -2692.7773    685.99705    12047.401 
   13650    293.99378    229.08226   -3136.0755    -2698.782      878.039    12049.679 
   13700    301.91719    229.42246   -3147.4154   -2698.3365    471.82361    12052.182 
   13750    302.66775    229.43367    -3147.789   -2697.5937    328.86847    12054.776 
   13800    308.27572    229.70282   -3156.7608    -2698.224    113.25009    12057.335 
   13850     296.5941    229.46273   -3148.7578   -2707.5966    337.04093    12059.803 
   13900    300.36981    229.63864   -3154.6214    -2707.844    143.45647    12062.243 
   13950     301.8932    229.76563   -3158.8545   -2709.8112   -37.944263    12064.591 
   14000    292.39171    229.48811   -3149.6036   -2714.6931    99.468401    12066.737 
   14050    280.75006    234.17361   -3139.1204   -2721.5259    348.34167     12068.77 
   14100    286.42166    234.44167   -3148.0557   -2722.0252    119.43823    12070.791 
   14150    275.36043    234.09405   -3136.4682   -2726.8904    428.30771     12072.74 
   14200    283.50861     234.4634   -3148.7799   -2727.0823    115.58538    12074.719 
   14250    286.05433    234.49825   -3149.9417   -2724.4576     7.118083    12076.603 
   14300    285.68937     234.4232   -3147.4401   -2722.4989    2.3806784    12078.327 
   14350    285.45508    234.42368    -3147.456   -2722.8632   -58.942597    12079.881 
   14400    298.46356    234.83232   -3161.0774   -2717.1354   -422.73201    12081.198 
   14450    279.95323    234.16754   -3138.9178   -2722.5086    250.79035    12082.154 
   14500    266.89182    233.84388   -3128.1294    -2731.148    630.59402    12083.058 
   14550    281.57122    234.28747   -3142.9157   -2724.0999    154.09007    12084.098 
   14600    291.13012    234.68024   -3156.0079   -2722.9739   -177.26917     12085.05 
   14650    281.48923    234.45279   -3148.4264   -2729.7325     113.5437    12085.758 
   14700    278.19033    234.26313   -3142.1042   -2728.3171    217.29631    12086.349 
   14750    295.19704    234.80994   -3160.3315   -2721.2482   -321.92315    12086.838 
   14800     283.9439    234.36164   -3145.3879   -2723.0429    47.875759    12087.022 
   14850    282.28109    234.34093   -3144.6977    -2724.826    91.945965    12087.033 
   14900    283.66064    234.36813   -3145.6044   -2723.6807    122.22225    12086.908 
   14950    274.62113    233.94751   -3131.5835   -2723.1054    499.67479     12086.67 
   15000    286.82879    234.35825   -3145.2749   -2718.6388      136.846    12086.459 
   15050    282.76418    234.23459   -3141.1531   -2720.5628    242.25403    12086.168 
   15100    289.59094    234.40938   -3146.9795   -2716.2349    73.993486    12085.791 
   15150    272.87417    233.83729   -3127.9098   -2722.0302    555.30819    12085.305 
   15200    288.34534    234.42654   -3147.5513   -2718.6595    12.981433    12084.863 
   15250    297.66835    234.68003   -3156.0009   -2713.2418   -256.69126    12084.258 
   15300    295.21708    234.46725   -3148.9084   -2709.7954   -51.441513    12083.337 
   15350    295.62657    234.46074   -3148.6914   -2708.9692    6.9342357    12082.177 
   15400    288.49232    234.26998   -3142.3328   -2713.2223     203.8659    12080.834 
   15450    290.29888    234.31475    -3143.825   -2712.0274    227.55482    12079.382 
   15500    284.10242    234.04455   -3134.8184   -2712.2376    490.66871    12077.858 
   15550     288.8535    234.08314   -3136.1048   -2706.4571    365.03939    12076.376 
   15600    296.10832    234.28957   -3142.9855   -2702.5469    228.96399    12074.891 
   15650    293.16871    234.22354   -3140.7848   -2704.7185    356.13875    12073.327 
   15700    290.20175    234.05851   -3135.2837   -2703.6306    604.48933    12071.756 
   15750    294.76934    234.08781   -3136.2603   -2697.8132    664.13144    12070.277 
   15800    292.71198    234.08807   -3136.2691   -2700.8822    706.37393    12068.954 
   15850    300.69501    234.24763   -3141.5878   -2694.3267    507.77258    12067.787 
   15900    281.96703    233.61793   -3120.5978   -2701.1932     1124.026    12066.731 
   15950    297.84297    234.07299   -3135.7663   -2692.7475    752.46201    12066.021 
   16000    303.70447    234.21851   -3140.6169   -2688.8795    569.17771    12065.539 
   16050    306.73993    229.29356   -3143.1185   -2686.8661    577.26846    12065.146 
   16100    294.75349    228.79686    -3126.562   -2688.1385    983.42402    12064.884 
   16150     311.1455    229.36582   -3145.5274   -2682.7221    425.21907    12064.865 
   16200    296.91056    228.79169   -3126.3897   -2684.7578    955.43888    12064.922 
   16250    290.09327    228.59922    -3119.974   -2688.4823    1255.7033    12065.268 
   16300    305.88546    229.19557   -3139.8522   -2684.8708    794.41514    12066.044 
   16350    310.63562    229.28648   -3142.8828   -2680.8358    622.20275    12067.062 
   16400    305.32136    228.97795   -3132.5985   -2678.4561    807.06827    12068.209 
   16450    304.69898    228.94254    -3131.418   -2678.2014     864.9076    12069.569 
   16500    300.26225    228.81447   -3127.1488   -2680.5315    1003.8069    12071.207 
   16550    313.72179    229.26921    -3142.307   -2675.6696     550.7979    12073.142 
   16600    313.12447    229.27058   -3142.3528   -2676.6039    496.91861    12075.204 
   16650    302.73385    228.86243   -3128.7476   -2678.4539    847.34025    12077.359 
   16700     310.0038    229.03017    -3134.339   -2673.2318    584.29695    12079.747 
   16750    310.28668    229.05942   -3135.3142   -2673.7862    515.24614    12082.272 
   16800    307.37046    228.97048   -3132.3494   -2675.1591    652.34678    12084.892 
   16850    310.36023    229.06842   -3135.6139   -2673.9766    550.49015    12087.661 
   16900    305.14624    228.89293   -3129.7644   -2675.8825    653.31091    12090.536 
   16950    289.40737    228.32997   -3110.9989   -2680.5274    1099.1367    12093.616 
   17000    300.27184    228.59894   -3119.9648   -2673.3332    779.06285    12097.086 
   17050    312.09887    233.97986    -3132.662   -2668.4386     427.7309    12100.792 
   17100    300.67344    233.54253   -3118.0842   -2670.8553    769.36369    12104.599 
   17150    301.00019    233.60954   -3120.3179   -2672.6029    706.70617     12108.65 
   17200    309.58047    233.89192   -3129.7307   -2669.2532    445.56025    12112.911 
   17250    294.13894    233.28611   -3109.5368   -2672.0275    913.19616    12117.302 
   17300     298.4949     233.4626   -3115.4199   -2671.4314      675.211    12122.005 
   17350    300.54252    233.57741   -3119.2471   -2672.2129    517.95701    12126.943 
   17400    299.68935    233.53608   -3117.8694   -2672.1043    566.48211     12132.03 
   17450    299.81015    233.48522   -3116.1739   -2670.2291    570.32827    12137.288 
   17500    295.97069    233.33223   -3111.0742   -2670.8402    630.69629    12142.712 
   17550    294.96278    233.30081    -3110.027   -2671.2922    517.86485    12148.328 
   17600    299.65351    233.44189   -3114.7297   -2669.0178    276.29023    12154.097 
   17650    292.22904    233.19715   -3106.5716    -2671.903    426.38398    12159.896 
   17700    290.82355    233.22783   -3107.5945   -2675.0165    436.78073     12165.78 
   17750    287.55876    233.02651   -3100.8838   -2673.1619    538.62234    12171.791 
   17800    301.40048     233.3923   -3113.0768   -2664.7664    101.79795    12177.939 
   17850    304.58044    233.54796   -3118.2652   -2665.2249     -100.774     12184.04 
   17900      299.163     233.2868   -3109.5601   -2664.5778    2.4043949    12189.979 
   17950    308.04687    233.56489   -3118.8297   -2660.6333   -284.91889    12195.753 
   18000    294.60202    233.03296   -3101.0987   -2662.9005    134.27568    12201.273 
   18050    292.73314     237.9607   -3098.6898   -2663.2715    276.82164    12206.708 
   18100    293.49687    237.97979   -3099.3265   -2662.7721    221.58764    12212.171 
   18150    296.82451    238.12672   -3104.2238   -2662.7199    49.230336     12217.63 
   18200    286.36537    237.75246   -3091.7485   -2665.8018    230.29825    12223.012 
   18250    299.80465    238.11056   -3103.6854   -2657.7487   -380.59182    12228.341 
   18300    298.05514     238.0971   -3103.2365   -2659.9021   -389.24906    12233.373 
   18350    284.61484    237.61467   -3087.1556   -2663.8126    205.31081    12238.079 
   18400    288.65049     237.6223   -3087.4101   -2658.0644    219.39774    12242.734 
   18450    299.89596    238.01373   -3100.4576   -2654.3851   -211.07872    12247.349 
   18500    298.27875    237.82154   -3094.0512   -2650.3841   -203.96482    12251.732 
   18550    292.22674    237.65268   -3088.4228   -2653.7576   -102.70082    12255.865 
   18600    296.07517    237.70511   -3090.1703   -2649.7809   -214.77915    12259.781 
   18650    297.75176    237.78434   -3092.8113   -2649.9281   -334.63649    12263.432 
   18700    300.46628    237.83491    -3094.497   -2647.5762   -325.73315    12266.752 
   18750    288.75428    237.34392   -3078.1306   -2648.6305    156.44763    12269.779 
   18800    299.93736    237.73411   -3091.1371    -2645.003   -68.567675     12272.68 
   18850    286.92882    237.19429   -3073.1431   -2646.3582    366.05702    12275.431 
   18900    289.96151    237.23593   -3074.5311   -2643.2353    182.42897    12278.209 
   18950    310.93894    237.92601   -3097.5336   -2635.0355   -433.80889      12280.9 
   19000    292.93096    237.16922   -3072.3074   -2636.5948    194.60369    12283.269 
   19050    303.99987    242.49573   -3083.1909   -2631.0141   -127.72579    12285.525 
   19100    309.44264    242.63841   -3087.9469   -2627.6744   -222.12559    12287.576 
   19150    299.67177    242.23695    -3074.565   -2628.8259     112.4946     12289.38 
   19200    309.19243    242.59655   -3086.5517   -2626.6514   -227.70869    12291.038 
   19250    295.59802    242.06747   -3068.9157    -2629.236    225.04983    12292.455 
   19300    293.44092    241.88756   -3062.9188   -2626.4477    336.04069     12293.82 
   19350    303.77144    242.20899    -3073.633    -2621.796   -53.069387     12295.18 
   19400    299.23907     241.9824     -3066.08   -2620.9846    114.31454    12296.377 
   19450    295.81157    241.85058   -3061.6861   -2621.6888    281.63834    12297.481 
   19500    298.64193    241.96152   -3065.3841   -2621.1769     286.4911    12298.568 
   19550    286.70913    241.46942   -3048.9807   -2622.5226    726.93917    12299.675 
   19600    292.25357    241.71359   -3057.1198   -2622.4147    568.74991    12300.997 
   19650    321.42793    242.63917   -3087.9724   -2609.8727   -286.61159    12302.446 
   19700    323.73141    242.64834   -3088.2781   -2606.7521   -380.19382    12303.608 
   19750     315.4568    242.33048   -3077.6827   -2608.4646   -87.153011    12304.379 
   19800    299.26684    241.65449   -3055.1496   -2610.0129    421.32963    12304.945 
   19850    305.51531    242.00487    -3066.829   -2612.3981    169.77778    12305.512 
   19900    304.06988    241.94606   -3064.8686   -2612.5877    219.21725    12306.038 
   19950    305.81012    241.85721   -3061.9069   -2607.0376    320.92126    12306.524 
   20000    300.30706    241.67156   -3055.7187   -2609.0347    466.86047     12307.01 
   20050    310.80641    247.15693   -3071.8977   -2609.5967    100.15804    12307.541 
   20100    294.12079    246.58684   -3052.8947   -2615.4123    592.58579    12308.018 
   20150    297.35936    246.74841   -3058.2804   -2615.9809    508.66729    12308.624 
   20200    294.98711    246.66014   -3055.3381   -2616.5672    624.52189    12309.376 
   20250    299.06645    246.74107   -3058.0358   -2613.1971    442.69326    12310.313 
   20300    305.84138    246.99603   -3066.5342   -2611.6183     139.9503    12311.337 
   20350    315.40582      247.367   -3078.8999   -2609.7576   -235.86954    12312.274 
   20400    306.93824     247.0341   -3067.8032   -2611.2558    17.506975    12312.962 
   20450    300.97363    246.81907   -3060.6357   -2612.9602    219.46671    12313.489 
   20500    312.99645    247.24954   -3074.9848   -2609.4263   -135.28375    12313.949 
   20550    314.04458    247.25138   -3075.0461   -2607.9286   -107.21429    12314.198 
   20600    303.90731    246.86404   -3062.1346   -2610.0955    230.61648    12314.237 
   20650    304.58871    246.83953   -3061.3177    -2608.265      225.165     12314.21 
   20700     294.7984    246.44334   -3048.1113    -2609.621    607.69758    12314.164 
   20750    293.47473     246.5303     -3051.01   -2614.4886    648.54174    12314.269 
   20800     295.6617    246.66981   -3055.6604    -2615.886    462.95169     12314.57 
   20850    298.90938    246.84372   -3061.4572   -2616.8522    257.37888    12314.959 
   20900    297.39603    246.73192   -3057.7307   -2615.3766    337.77569    12315.348 
   20950    303.66258    246.82249   -3060.7498   -2609.0747    229.43324    12315.758 
   21000     303.7899    246.77102    -3059.034   -2607.1695    118.10065    12316.136 
   21050    307.47312    246.96544   -3065.5148   -2608.1718   -128.20144    12316.407 
   21100    296.62219    246.69808   -3056.6026   -2615.3996    230.32605    12316.472 
   21150    295.67266    246.68748   -3056.2492   -2616.4586    339.12728    12316.473 
   21200     308.2082    247.14011   -3071.3369   -2612.9005   -69.413901    12316.473 
   21250    302.53833    246.94502   -3064.8339   -2614.8311    89.220537    12316.308 
   21300    302.77615    246.89685   -3063.2284   -2612.8718    156.39876    12316.005 
   21350    307.38093    247.04079   -3068.0264   -2610.8205    125.66147    12315.625 
   21400    315.48849    247.35134   -3078.3779   -2609.1127   -121.49295    12315.126 
   21450    306.02345    246.99086   -3066.3619   -2611.1752    117.61639     12314.41 
   21500    305.40634     247.0793   -3069.3099   -2615.0412   -29.122469     12313.57 
   21550     300.8875     246.9623   -3065.4101   -2617.8628    39.646898    12312.556 
   21600    301.60746    246.96692   -3065.5639   -2616.9457    73.152951    12311.393 
   21650    306.24935    247.19923   -3073.3077    -2617.785   -29.207831    12310.104 
   21700    297.07486    246.85413   -3061.8043    -2619.928    238.85652    12308.648 
   21750    294.67786    246.76946    -3058.982   -2620.6711    227.00952    12307.124 
   21800    295.08192    246.79931   -3059.9769   -2621.0649    291.64403    12305.552 
   21850    298.00642     246.8814   -3062.7133   -2619.4513     296.3259    12303.971 
   21900    304.83047    247.19046   -3073.0152    -2619.603    64.418505     12302.38 
   21950     299.0241    247.01713   -3067.2377   -2622.4621    156.61409    12300.659 
   22000     288.7102    246.57546   -3052.5154   -2623.0809    450.54657    12298.855 
   22050    298.42475     251.9584   -3065.2801   -2621.3959    234.06731    12297.105 
   22100      295.422    251.77448   -3059.1493   -2619.7314    406.02111    12295.372 
   22150    294.07272    251.81007   -3060.3356   -2622.9247    320.71306    12293.686 
   22200    307.51835    252.35383   -3078.4609   -2621.0506   -176.64504    12291.984 
   22250    303.26047    252.19246   -3073.0818   -2622.0049    60.689639    12290.076 
   22300    302.52369     252.1723   -3072.4101    -2622.429    209.25098    12288.037 
   22350    306.15964    252.25138   -3075.0458   -2619.6566    164.48045    12285.935 
   22400    278.59626    251.28044   -3042.6813   -2628.2905     998.4908     12283.82 
   22450    276.80979    251.26752   -3042.2507   -2630.5172    920.12799    12282.053 
   22500    307.27291     252.3949   -3079.8298   -2622.7847   -115.90616    12280.592 
   22550    306.47131    252.41413   -3080.4709   -2624.6181   -102.17567    12278.969 
   22600    301.18583     252.2518   -3075.0601    -2627.069    168.88207    12277.125 
   22650    294.58246    252.02545    -3067.515    -2629.346    379.55907    12275.226 
   22700    302.83386    252.43693    -3081.231   -2630.7885    62.049283    12273.352 
   22750    288.98593    251.93141   -3064.3804   -2634.5357    552.68524    12271.398 
   22800    274.72003    251.43218   -3047.7393   -2639.1141     1034.087    12269.603 
   22850    302.97263    252.49868   -3083.2892   -2632.6403    71.180205    12268.148 
   22900    297.30418    252.28087   -3076.0289   -2633.8114    207.96492    12266.656 
   22950    292.57157    252.17118   -3072.3725   -2637.1945    421.31343    12265.107 
   23000    287.82734    252.01022   -3067.0072   -2638.8859    615.18259    12263.635 
   23050    285.48849    252.04605   -3068.2015    -2643.559    558.64142    12262.344 
   23100    299.36538     252.6202   -3087.3401   -2642.0568    -1.328306    12261.186 
   23150    292.38312    252.40302   -3080.1006   -2645.2028    101.88254    12259.914 
   23200    287.72043    252.19369    -3073.123   -2645.1607    278.10646    12258.539 
   23250    285.50124    252.22213   -3074.0711   -2649.4097    381.19118     12257.18 
   23300    285.62492    252.20394   -3073.4647   -2648.6192    360.62169    12255.875 
   23350    294.25163    252.57266   -3085.7553   -2648.0783    23.819119    12254.602 
   23400    291.17998    252.50743   -3083.5809   -2650.4727    149.46624    12253.219 
   23450    280.56298    252.08736   -3069.5787   -2652.2626    605.49986    12251.787 
   23500    276.98548    252.01148   -3067.0493   -2655.0544     663.6046    12250.526 
   23550    287.50866      252.475   -3082.5001   -2654.8528    199.11507    12249.454 
   23600    287.59596    252.44008   -3081.3361   -2653.5589    178.50907    12248.379 
   23650    295.59171    252.80845    -3093.615   -2653.9447   -74.977276    12247.242 
   23700    287.98861    252.51568   -3083.8561   -2655.4949    214.69991    12245.965 
   23750    282.59704    252.42699   -3080.8997   -2660.5581    400.63603    12244.642 
   23800    277.00003    252.24115    -3074.705   -2662.6884    573.38149    12243.385 
   23850    290.82126    252.72671   -3090.8903   -2658.3157    60.535475    12242.262 
   23900    292.31691     252.8128   -3093.7599   -2658.9607   -105.22129    12241.051 
   23950    296.91695    253.11828   -3103.9427   -2662.3013    -267.0832     12239.62 
   24000    281.45844    252.55797   -3085.2655   -2666.6174    259.27773    12237.946 
   24050    283.47255    247.72496   -3090.8321   -2669.1881    145.18701    12236.209 
   24100    288.99098    247.87348   -3095.7827   -2665.9305   -4.3825003    12234.395 
   24150    286.45507    247.68816   -3089.6054   -2663.5252    201.35764    12232.441 
   24200     283.7499    247.63688   -3087.8961   -2665.8397    355.90867    12230.424 
   24250    281.61717    247.49341   -3083.1138   -2664.2296    468.25021    12228.448 
   24300    287.76491    247.79856   -3093.2852   -2665.2567    175.51724    12226.553 
   24350    289.53411    247.88193   -3096.0644   -2665.4043    93.092475    12224.605 
   24400    280.05893     247.5922   -3086.4067   -2669.8403    396.76413    12222.572 
   24450    288.75275    247.90601   -3096.8671   -2667.3692    113.17708    12220.562 
   24500    296.02913    248.24168    -3108.056   -2667.7351   -125.59501     12218.45 
   24550    283.50762    247.79049   -3093.0163   -2671.3202    337.62954    12216.147 
   24600    283.63733    247.75139    -3091.713    -2669.824    433.24308    12213.861 
   24650    291.64224    248.02401   -3100.8003   -2667.0046     274.4324     12211.62 
   24700    277.90574    247.44955   -3081.6516   -2668.2879     785.7108    12209.407 
   24750    282.78358    247.67152   -3089.0508   -2668.4316    635.19395    12207.421 
   24800    286.51615    247.75711   -3091.9038   -2665.7327    523.97951    12205.632 
   24850     281.5908    247.50413   -3083.4711   -2664.6262    727.47959    12204.011 
   24900    307.01567    248.49284   -3116.4281   -2659.7655   -93.701772    12202.547 
   24950    298.42646    248.13074    -3104.358   -2660.4713    211.40405    12200.935 
   25000    287.24632    247.70809   -3090.2697   -2663.0126    604.96526    12199.275 
   25050    288.19257    242.76885   -3092.2948   -2663.6302    585.07114    12197.755 
   25100    289.09581    242.80058   -3093.3528   -2663.3447    558.93855     12196.39 
   25150    286.48736    242.59913   -3086.6375   -2660.5093    699.54331    12195.165 
   25200    293.31281    242.85283   -3095.0945   -2658.8139    570.85542    12194.139 
   25250    302.10068    242.99141   -3099.7137   -2650.3618    418.92439    12193.264 
   25300    293.41509     242.6308   -3087.6933   -2651.2606     699.8664    12192.454 
   25350    300.76813    242.93857   -3097.9525   -2650.5827    420.38896    12191.819 
   25400    292.02892    242.62233    -3087.411   -2653.0401    771.01391    12191.289 
   25450    292.68452    242.60119   -3086.7065   -2651.3604    823.10925    12190.991 
   25500    306.83798    242.94421   -3098.1403   -2641.7421    469.27586    12190.958 
   25550    306.44973    242.97807   -3099.2691   -2643.4483    550.73338    12191.033 
   25600    302.70028    242.86361   -3095.4536   -2645.2099    657.33563    12191.237 
   25650    296.05657    242.59092    -3086.364   -2646.0023    830.69109    12191.649 
   25700    308.55547    242.97225   -3099.0751   -2640.1222    484.69873    12192.321 
   25750    303.42251     242.6782   -3089.2732   -2637.9553    680.68392    12193.119 
   25800    301.10949    242.59506   -3086.5021   -2638.6245    819.62314    12194.113 
   25850    317.06109     243.1086   -3103.6199   -2632.0156    460.68044    12195.348 
   25900    312.29133    242.87617   -3095.8725   -2631.3628    635.67934    12196.688 
   25950    304.69332    242.63349   -3087.7831   -2634.5748    926.45172    12198.194 
   26000    289.15086    241.91229   -3063.7431   -2633.6531     1635.092    12200.074 
   26050    293.70508     247.0411   -3068.0365   -2631.1725    1574.6898    12202.655 
   26100    295.93245    247.01696   -3067.2319   -2627.0548    1473.8958    12205.962 
   26150    298.86499    247.15783   -3071.9278   -2627.3888     1220.601    12209.922 
   26200     309.5735    247.51419   -3083.8065   -2623.3394     771.4011    12214.406 
   26250    303.45701    247.23374   -3074.4579   -2623.0886    898.37505    12219.216 
   26300    310.51537    247.51998   -3083.9995   -2622.1314    574.55608    12224.341 
   26350    303.95816    247.26055   -3075.3516   -2623.2369    827.03745    12229.674 
   26400    302.89847    247.14815   -3071.6049   -2621.0663    900.23288    12235.321 
   26450    309.74973    247.39837   -3079.9456   -2619.2163    542.18414    12241.305 
   26500     303.7727    247.09281   -3069.7602   -2617.9213     615.2397    12247.482 
   26550    319.82405     247.7767   -3092.5568   -2616.8428    5.1890874    12253.803 
   26600    307.34172    247.25178   -3075.0592   -2617.9117    396.94457    12260.059 
   26650    310.22156    247.31962   -3077.3208   -2615.8897     363.8233    12266.363 
   26700    304.55694    247.07612   -3069.2038   -2616.1985     490.5897    12272.761 
   26750    307.90593    247.14135   -3071.3785   -2613.3918    274.54463    12279.271 
   26800    306.21856    247.02309   -3067.4363   -2611.9594    233.44421    12285.802 
   26850    309.84406    247.12115   -3070.7049   -2609.8354    159.79793    12292.326 
   26900    298.40434    246.66431   -3055.4769    -2611.623    593.68202    12298.843 
   26950    304.57367    246.91798   -3063.9325   -2610.9022    313.91524    12305.511 
   27000     313.2276    247.32191   -3077.3968   -2611.4945   -158.09631    12312.202 
   27050    286.02411    246.30085   -3043.3617   -2617.9225    575.18218    12318.745 
   27100    287.69681    246.32802   -3044.2673   -2616.3401    560.79609    12325.415 
   27150    302.77641    246.80463   -3060.1542   -2609.7972    80.787867    12332.263 
   27200    303.54643    246.79449   -3059.8164   -2608.3141    24.429521    12339.053 
   27250    300.71952    246.73663   -3057.8877   -2610.5902    55.261536     12345.71 
   27300    309.37903    247.03323   -3067.7742   -2607.5963   -351.89148    12352.236 
   27350     307.0108    246.89395   -3063.1315   -2606.4762   -307.66014    12358.454 
   27400    295.63573    246.45427   -3048.4756   -2608.7399    114.96563    12364.366 
   27450    288.29747    246.20291   -3040.0971   -2611.2764    317.89215    12370.198 
   27500     302.3788    246.70283    -3056.761   -2606.9954   -262.64341    12376.015 
   27550    302.73424    246.71865   -3057.2885   -2606.9943   -399.35158    12381.574 
   27600    303.58219    246.77666   -3059.2219   -2607.6664   -424.01174     12386.76 
   27650    297.75713    246.59478   -3053.1595   -2610.2683   -273.70409    12391.559 
   27700    298.02273    246.60874   -3053.6246   -2610.3384   -350.72867    12396.044 
   27750    288.84335    246.28384   -3042.7947   -2613.1621   -22.516029    12400.213 
   27800    286.81851    246.19629   -3039.8762   -2613.2554    55.704524    12404.204 
   27850    298.48103    246.58434   -3052.8114   -2608.8435   -435.20439    12408.048 
   27900    297.51104    246.51219   -3050.4062   -2607.8811   -517.52624    12411.502 
   27950    287.55905    246.16262   -3038.7541   -2611.0318   -296.43122    12414.532 
   28000    292.90416    246.28463   -3042.8211   -2607.1483   -465.40979    12417.227 
   28050    298.41102    246.51366   -3050.4553   -2606.5915   -694.05178    12419.502 
   28100    296.74781    246.51867   -3050.6223   -2609.2324   -695.79917    12421.245 
   28150    290.32694    246.22307   -3040.7689   -2608.9295   -394.51047    12422.448 
   28200    286.67515    246.17756   -3039.2521   -2612.8445   -320.98042    12423.267 
   28250    292.06008     246.3068   -3043.5599   -2609.1427   -381.84191    12423.727 
   28300    284.70297    245.89291   -3029.7636   -2606.2895    5.3428303    12423.837 
   28350    302.49912    246.60658   -3053.5526   -2603.6081   -669.86787    12423.717 
   28400     301.8339    246.56406   -3052.1354   -2603.1804   -755.29481    12423.085 
   28450    304.08823    246.64928   -3054.9761   -2602.6679   -798.80668    12421.845 
   28500    301.83555    246.51396   -3050.4653   -2601.5078   -641.53109    12420.011 
   28550     304.3689    246.45551   -3048.5168   -2595.7912   -493.64848    12417.636 
   28600    294.85649     246.0661   -3035.5366   -2596.9599   -100.54078    12414.823 
   28650     302.5269    246.39164   -3046.3882   -2596.4023   -371.34307    12411.733 
   28700    306.01679    246.51246   -3050.4154   -2595.2386   -513.89431    12408.271 
   28750    303.24096    246.36395   -3045.4651   -2594.4171   -391.22571    12404.367 
   28800    304.34053    246.42803   -3047.6009   -2594.9174   -333.84322    12400.059 
   28850    298.74039    246.18306   -3039.4352   -2595.0816   -80.698686    12395.389 
   28900    302.52605    246.38322   -3046.1074   -2596.1229    -136.9385    12390.476 
   28950    293.93529    246.01359   -3033.7863   -2596.5799    362.88744    12385.352 
   29000    300.48421    246.16766   -3038.9219   -2591.9745    340.26347    12380.218 
   29050    307.55262    246.37724    -3045.908   -2588.4468    138.37534    12375.097 
   29100    305.99654    246.33643   -3044.5476    -2589.401    206.46816    12369.887 
   29150    325.67992    247.03377   -3067.7925   -2583.3683   -292.84331     12364.57 
   29200     307.5142    246.33039   -3044.3462   -2586.9422    454.75086     12358.99 
   29250    309.92426    246.35307   -3045.1023   -2584.1135    423.39977    12353.438 
   29300     318.7513    246.71887   -3057.2957   -2583.1773    96.751936    12347.923 
   29350    304.37388     246.1782   -3039.2734   -2586.5403    596.27566    12342.343 
   29400    327.34527    247.02766   -3067.5886   -2580.6873   -79.414012    12336.852 
   29450     332.9404    247.24286   -3074.7621   -2579.5385   -109.43875    12331.153 
   29500     316.5497    246.50235   -3050.0783   -2579.2346    610.25166    12325.249 
   29550    319.17162    246.58909   -3052.9695   -2578.2259    696.56726    12319.471 
   29600    318.16701    246.52541   -3050.8471   -2577.5978    821.29538    12313.903 
   29650     322.5258    246.52351   -3050.7838   -2571.0511    738.92436     12308.59 
   29700    318.16208    246.41018   -3047.0058   -2573.7639    938.85334     12303.53 
   29750     320.2934       246.44   -3048.0001   -2571.5879    915.22153    12298.802 
   29800    322.71386    246.46391    -3048.797   -2568.7846    920.65296    12294.408 
   29850    317.52096    246.24096   -3041.3652   -2569.0769    1171.5321    12290.352 
   29900    325.98334    246.49517   -3049.8389   -2564.9634    949.90511    12286.743 
   29950    335.45153    246.79068   -3059.6894   -2560.7307    771.17804    12283.462 
   30000    317.92246    246.11292   -3037.0974   -2564.2118    1467.3985    12280.466 
   30050    323.73095    246.33999   -3044.6664   -2563.1411    1340.8498    12278.048 
   30100    336.47987    246.77273    -3059.091   -2558.6027    950.94069    12276.176 
   30150    323.30054    246.22771   -3040.9236   -2560.0386    1433.1015    12274.709 
   30200    329.54192    246.48591   -3049.5303   -2559.3617    1255.7691    12273.818 
   30250     336.7143     246.6757   -3055.8567   -2555.0197    1013.1427    12273.453 
   30300    334.40144    246.53946   -3051.3154   -2553.9186    1154.5635    12273.483 
   30350    323.79802    246.11018   -3037.0058   -2555.3808     1548.238     12273.97 
   30400    316.19754    245.82048   -3027.3494   -2557.0296    1700.8191    12275.117 
   30450    325.39044    246.27485   -3042.4952   -2558.5015    1242.1146    12277.012 
   30500    322.58222    246.07723   -3035.9077   -2556.0911    1427.0614    12279.462 
   30550    321.06914     246.0391   -3034.6368   -2557.0708    1594.7715    12282.522 
   30600    327.27352    246.18555   -3039.5185   -2552.7239    1471.9543    12286.286 
   30650    327.79628    246.24052   -3041.3508   -2553.7787    1275.3707    12290.708 
   30700    342.23399    246.72156   -3057.3855   -2548.3384    628.30892    12295.644 
   30750     340.8554    246.75444   -3058.4814   -2551.4848    591.38167    12300.784 
   30800    325.50738    246.19428   -3039.8093   -2555.6417    1049.5356    12306.102 
   30850    323.11289    246.26525   -3042.1749   -2561.5689    929.91313    12311.812 
   30900    330.62924    246.61998   -3053.9994   -2562.2134    553.62473    12317.866 
   30950    305.63059    245.81319   -3027.1062   -2572.5038    1236.0337    12324.135 
   31000    320.34848    246.33325   -3044.4415   -2567.9474     646.9301    12330.856 
   31050    314.50333    251.09495   -3036.4984   -2568.6985    732.34924    12337.834 
   31100    305.77552    250.89329   -3029.7765   -2574.9585    975.10436    12345.075 
   31150    322.01182    251.55804   -3051.9347   -2572.9666    274.90658    12352.692 
   31200    321.10674    251.60192   -3053.3972   -2575.7753    62.873779     12360.37 
   31250    314.29085    251.36518   -3045.5059   -2578.0221    126.39416    12367.958 
   31300    308.51613    251.30917   -3043.6391   -2584.7447    176.05421    12375.468 
   31350    296.01027    250.83829   -3027.9429   -2587.6501    550.63463    12382.974 
   31400    297.36951    250.93539   -3031.1795   -2588.8649    402.72058    12390.643 
   31450    304.15871    251.26145   -3042.0484   -2589.6354    13.264388    12398.383 
   31500    290.44427    250.85653   -3028.5511   -2596.5372    294.25431    12406.039 
   31550    296.21834    251.12447   -3037.4822   -2596.8798   -104.41998    12413.693 
   31600    305.68283    251.52186   -3050.7288   -2596.0487   -646.70906    12421.169 
   31650    302.71857    251.35698   -3045.2326   -2594.9617   -633.83061    12428.159 
   31700    293.35174    251.00836   -3033.6121   -2597.2736   -402.50552    12434.659 
   31750     300.1624    251.33502   -3044.5006   -2598.0318   -707.66171    12440.767 
   31800    297.54105    251.27877   -3042.6258    -2600.056   -779.30413    12446.357 
   31850    297.16498    251.25224   -3041.7414    -2599.731   -861.68651    12451.358 
   31900    300.35225    251.31328   -3043.7759   -2597.0246   -966.69292    12455.722 
   31950    296.80898     251.1411   -3038.0367   -2596.5559   -852.01701    12459.407 
   32000     293.0685    251.14135   -3038.0452    -2602.128   -746.83552    12462.451 
   32050    276.40871    255.53836   -3017.9454   -2606.8084   -243.17471    12464.962 
   32100    275.89763    255.53657   -3017.8857   -2607.5089   -327.04318    12467.192 
   32150    293.98803    256.23492    -3041.164   -2603.8791   -1002.1239    12469.062 
   32200    286.80573    255.94178   -3031.3927   -2604.7909   -731.05052    12470.284 
   32250    288.58727    256.03909   -3034.6364   -2605.3847   -842.58772    12470.939 
   32300     295.4033    256.27886   -3042.6286   -2603.2386   -1080.8683    12470.983 
   32350    285.99702    255.91943   -3030.6476   -2605.2487   -679.52628    12470.313 
   32400    285.27654    255.88111   -3029.3702   -2605.0429   -560.16493    12469.078 
   32450    271.13746    255.34903   -3011.6343   -2608.3379   -133.12393    12467.436 
   32500    295.61869    256.21504   -3040.5014    -2600.791   -851.48514    12465.506 
   32550     293.7604    256.12912   -3037.6374   -2600.6911   -734.61774    12463.007 
   32600    288.53388    255.98485   -3032.8284   -2603.6562   -537.63729    12459.953 
   32650    277.07305    255.57387    -3019.129   -2607.0039   -90.287947    12456.465 
   32700    283.91383     255.9108   -3030.3601   -2608.0598   -255.16727     12452.75 
   32750    287.02533    255.95296   -3031.7654   -2604.8369    -294.5579    12448.773 
   32800    289.76189    256.03771   -3034.5903   -2603.5915   -406.65432    12444.486 
   32850    317.79298    257.06691   -3068.8971   -2596.2041   -1395.7318    12439.772 
   32900    299.63411    256.43054   -3047.6848   -2602.0018    -811.8804     12434.22 
   32950    292.82205    256.13733   -3037.9112   -2602.3606   -456.16238     12428.05 
   33000     290.3168     256.0184   -3033.9467   -2602.1225   -204.44792    12421.494 
   33050    294.96793     261.2085   -3040.2834   -2601.5409   -183.82835     12414.67 
   33100     290.1025    261.07447   -3035.8155     -2604.31    37.888878    12407.635 
   33150    292.30563    261.13024   -3037.6745    -2602.892   -7.9654059    12400.472 
   33200    295.60277    261.14399   -3038.1329   -2598.4462   -108.61759    12393.185 
   33250    294.09802    261.10813   -3036.9377   -2599.4891    34.298619    12385.721 
   33300    297.95449    261.22735   -3040.9117   -2597.7269    162.76967    12378.163 
   33350    309.78445    261.68762   -3056.2541   -2595.4732   -101.08048    12370.548 
   33400    305.65234    261.48483   -3049.4943   -2594.8596    75.652307    12362.768 
   33450    302.78219    261.35165    -3045.055   -2594.6894    260.76271    12354.916 
   33500    307.32399    261.49095   -3049.6984   -2592.5772    318.96353     12347.08 
   33550    296.59801    260.93859   -3031.2863   -2590.1193    905.54251    12339.325 
   33600    285.93608     260.5892     -3019.64   -2594.3318    1334.2805    12331.946 
   33650    289.69886    260.73743   -3024.5809   -2593.6758    1233.2226    12325.172 
   33700    301.80691    261.16032   -3038.6772   -2589.7623    894.62133    12318.956 
   33750     307.1286    261.26459   -3042.1529   -2585.3224    853.33997    12313.131 
   33800     309.6786    261.39623    -3046.541   -2585.9176    969.81534    12307.643 
   33850     308.8956    261.40002   -3046.6672   -2587.2084    1097.3989    12302.564 
   33900    317.37926    261.72243   -3057.4143   -2585.3367    827.01454    12297.956 
   33950    321.50875    261.86715   -3062.2382   -2584.0183    659.31191    12293.686 
   34000    308.89962    261.36466   -3045.4887    -2586.024    1070.9047    12289.684 
   34050    304.59516    256.15554   -3038.5181   -2585.4558    1278.3053    12286.134 
   34100    308.27015    256.24369   -3041.4564    -2582.928    1212.4275    12283.145 
   34150    324.25768    256.79573   -3059.8576   -2577.5489     818.4313     12280.65 
   34200     312.0163    256.31395   -3043.7984   -2579.6978    1322.4012    12278.522 
   34250    318.85954    256.58346   -3052.7821   -2578.5027    1084.4761    12276.924 
   34300    321.69554    256.66792   -3055.5972   -2577.0995    848.41379    12275.801 
   34350    319.03406    256.61036   -3053.6787   -2579.1397     936.7895    12275.008 
   34400    304.62039    256.04128   -3034.7092   -2581.6095    1472.5097    12274.618 
   34450    311.49279     256.3684   -3045.6133   -2582.2914    1264.6012    12274.867 
   34500    322.57587    256.72097   -3057.3658   -2577.5586    950.43105    12275.667 
   34550    327.94854    256.88438   -3062.8127   -2575.0141     809.1774     12276.86 
   34600    306.51316    256.11714   -3037.2379   -2581.3228    1494.9114     12278.41 
   34650     305.9552     256.1531   -3038.4365   -2583.3513     1446.645    12280.594 
   34700    311.49105     256.4354   -3047.8466   -2584.5273    1185.0899     12283.45 
   34750    302.37332    256.02817   -3034.2723   -2584.5149    1482.2652    12286.864 
   34800    313.92945    256.40315   -3046.7718   -2579.8255    986.37309    12290.921 
   34850    321.83225    256.71057   -3057.0189   -2578.3179    508.32052    12295.401 
   34900    314.28222    256.56021   -3052.0071   -2584.5361    659.82204    12300.051 
   34950    292.70969    255.86366   -3028.7885    -2593.405     1402.771    12304.991 
   35000    299.71389      256.222   -3040.7334   -2594.9316    1073.3471    12310.512 
   35050    313.06321    251.68841   -3056.2803   -2590.6225    472.82223    12316.491 
   35100    302.32902    251.34908   -3044.9693   -2595.2778    694.57744    12322.654 
   35150    291.51805    250.94987   -3031.6623   -2598.0513     928.6419    12329.078 
   35200    313.50174    251.75493   -3058.4976   -2592.1875    107.73352    12335.828 
   35250    321.01102    252.00548   -3066.8494   -2589.3698   -275.89894    12342.535 
   35300    310.81583    251.69402   -3056.4673   -2594.1523   -100.18542    12348.961 
   35350    289.93021    251.08013   -3036.0042    -2604.755    474.85228    12355.206 
   35400    284.75426     251.0251     -3034.17   -2610.6196    547.72862    12361.563 
   35450    289.43364    251.21455    -3040.485   -2609.9744    277.72014    12368.084 
   35500    298.57285    251.51505   -3050.5015    -2606.397   -183.14214    12374.625 
   35550    302.69236    251.69619   -3056.5396   -2606.3077   -404.99773    12380.936 
   35600    294.13508    251.37836   -3045.9454   -2608.4417   -173.06611    12386.915 
   35650    297.31347    251.61619    -3053.873   -2611.6417   -437.51943    12392.632 
   35700    294.42949    251.57021   -3052.3404   -2614.3989   -486.73914    12397.969 
   35750    297.08067    251.81019   -3060.3398   -2618.4548   -727.72649     12402.89 
   35800     302.0269    252.02455    -3067.485   -2618.2429   -932.09409    12407.266 
   35850     286.1907    251.48847   -3049.6157   -2623.9287   -471.30639    12411.017 
   35900    288.98735    251.62076   -3054.0252   -2624.1784   -703.30573    12414.326 
   35950    287.88785    251.51977   -3050.6591   -2622.4478   -719.95548    12417.119 
   36000    273.02698    251.01721   -3033.9071   -2627.8002    -242.5998    12419.395 
   36050     286.6056    251.61429   -3053.8096   -2627.5055   -761.29279    12421.335 
   36100    299.38842    252.09709    -3069.903   -2624.5854   -1189.0597    12422.711 
   36150     282.0662    251.48498   -3049.4992   -2629.9471   -585.49118    12423.332 
   36200    287.22201    251.63929   -3054.6431   -2627.4221   -700.85223    12423.425 
   36250     283.7712    251.50729    -3050.243   -2628.1548   -687.54244    12423.001 
   36300    282.47543    251.46439   -3048.8128    -2628.652   -710.26504     12422.04 
   36350     283.1987    251.44622   -3048.2073   -2626.9707   -689.64953    12420.531 
   36400    278.38946    251.32816   -3044.2722   -2630.1889   -547.28751    12418.509 
   36450    286.81909    251.67071   -3055.6903   -2629.0686   -773.01153    12415.995 
   36500    279.79716    251.33013   -3044.3376   -2628.1605   -443.21666    12412.943 
   36550    283.09062    251.44748   -3048.2492   -2627.1734   -515.82757    12409.473 
   36600    292.43111    251.80142   -3060.0474   -2625.0783   -918.80792    12405.544 
   36650    290.66097    251.72726   -3057.5752   -2625.2391   -942.10578    12400.972 
   36700     285.3103    251.55012   -3051.6708   -2627.2933   -678.92237    12395.724 
   36750    285.08931    251.68901   -3056.3004   -2632.2516   -619.08427    12389.934 
   36800    299.07797    252.16241   -3072.0803   -2627.2245   -895.88054    12383.618 
   36850    291.34081    251.78574   -3059.5247   -2626.1773   -601.08646    12376.697 
   36900    302.52231    252.23281   -3074.4269   -2624.4479   -959.44656    12369.249 
   36950     283.9733    251.50304   -3050.1014   -2627.7126   -165.99087     12361.19 
   37000    285.93147    251.55831   -3051.9437   -2626.6423   -21.244418    12352.845 
   37050    286.86681    256.59703   -3053.2344   -2626.5418    42.475043     12344.35 
   37100    291.60199    256.67278   -3055.7593   -2622.0235    16.980218    12335.736 
   37150    298.76516     256.8604   -3062.0132   -2617.6227   -102.21445    12327.001 
   37200     293.3687    256.75784   -3058.5946   -2622.2308    191.67925    12318.098 
   37250    297.78362    256.96594   -3065.5314   -2622.6008    219.75566    12309.149 
   37300    293.57956    256.83673   -3061.2244    -2624.547    467.90539    12300.209 
   37350     295.0367    256.85968   -3061.9893   -2623.1446    481.21543    12291.384 
   37400    301.84623    257.08348   -3069.4492   -2620.4758    332.76514    12282.692 
   37450    291.64009    256.71628   -3057.2093   -2623.4168    763.62602    12274.093 
   37500    304.26051    257.20078   -3073.3594   -2620.7949    559.52973    12265.747 
   37550    297.68244    256.97176   -3065.7254   -2622.9453    919.59189    12257.621 
   37600    289.74576    256.61164   -3053.7213   -2622.7464    1253.9457     12249.87 
   37650    296.96355    256.84126   -3061.3752   -2619.6644    1100.7809     12242.65 
   37700     288.2161    256.39343   -3046.4476    -2617.748    1515.1143    12235.955 
   37750     295.5574    256.73991   -3057.9971   -2618.3779    1348.8922    12229.923 
   37800    301.70392    256.99769   -3066.5896   -2617.8279    1352.6341    12224.498 
   37850    293.41969    256.63725    -3054.575   -2618.1354    1743.3038    12219.723 
   37900    318.33002    257.60555   -3086.8517   -2613.3599    962.19454    12215.687 
   37950    302.97549    257.01689   -3067.2297   -2616.5766    1517.5677    12212.122 
   38000    296.85799    256.91013    -3063.671   -2622.1173    1702.3086    12209.236 
   38050    304.20169    252.13179   -3071.0596   -2618.5827    1415.1475    12207.114 
   38100    302.58698    252.04662   -3068.2207   -2618.1455    1475.3456    12205.637 
   38150    303.72738    252.04213   -3068.0711   -2616.2997    1523.7197    12204.821 
   38200    307.16669    252.10523   -3070.1742   -2613.2871    1516.6298    12204.688 
   38250    308.51431    252.12318   -3070.7727    -2611.881    1457.1746    12205.233 
   38300    308.46428    252.12637    -3070.879   -2612.0618    1375.6612    12206.417 
   38350    299.32363    251.71609   -3057.2028   -2611.9816    1580.5106    12208.233 
   38400    306.83357    252.05636   -3068.5455   -2612.1538     1299.172    12210.749 
   38450    297.28057    251.62431   -3054.1437   -2611.9614    1561.8475    12213.877 
   38500    309.59312    252.05536   -3068.5121   -2608.0158     1091.458    12217.658 
   38550    296.98925    251.61335   -3053.7783   -2612.0293    1454.3579    12221.956 
   38600    305.97838    251.89006   -3063.0021   -2607.8824    1203.7845    12226.867 
   38650    308.10283     251.8745   -3062.4834   -2604.2038    1052.4391    12232.317 
   38700    316.42616    252.25423    -3075.141    -2604.481    588.49761    12238.176 
   38750    309.02878    252.07059   -3069.0197   -2609.3628    704.66011    12244.264 
   38800    309.89076    252.10383   -3070.1277   -2609.1886    679.37855    12250.576 
   38850    307.98685    251.98057    -3066.019   -2607.9119    841.04022    12257.136 
   38900    304.70593    251.84717   -3061.5723   -2608.3453    974.82457    12264.027 
   38950    300.19995     251.6297   -3054.3233   -2607.7986    1022.0157    12271.303 
   39000    303.13334    251.80184   -3060.0613   -2609.1734    779.95737    12278.979 
   39050    298.68369    246.58222   -3052.7406   -2608.4713    758.20465    12286.956 
   39100    302.96611    246.68305   -3056.1018   -2605.4627    496.87348    12295.191 
   39150    306.04105    246.81784   -3060.5947   -2605.3819    366.85947    12303.565 
   39200    302.80335    246.65565   -3055.1882   -2604.7912    456.08617    12312.002 
   39250    290.46187    246.16487    -3038.829    -2606.789    739.60795    12320.556 
   39300    286.48235    246.17357   -3039.1189   -2612.9981    719.20718    12329.351 
   39350    295.91604    246.43422   -3047.8072   -2607.6545    387.68774    12338.379 
   39400     306.3613    246.82551   -3060.8503   -2605.1611     -48.5915    12347.453 
   39450    300.36327    246.51896   -3050.6319   -2603.8643     14.67566     12356.38 
   39500    302.17486    246.61822   -3053.9406   -2604.4784   -112.25655    12365.136 
   39550    303.06736    246.69241   -3056.4138   -2605.6241   -246.34275    12373.672 
   39600    295.99185    246.42796   -3047.5986   -2607.3332   -172.43449    12381.934 
   39650    303.01216    246.69636   -3056.5454   -2605.8378   -492.91236    12389.912 
   39700    294.44699    246.31936   -3043.9786    -2606.011   -258.50126    12397.492 
   39750    290.32008    246.22407   -3040.8022   -2608.9731   -172.07853    12404.744 
   39800    288.18307    246.24479    -3041.493   -2612.8425   -201.90537    12411.739 
   39850    280.50362     245.9828   -3032.7598    -2615.532   -37.651859    12418.473 
   39900    284.08743    246.04015   -3034.6718   -2612.1133   -269.16288    12425.014 
   39950    301.20687    246.66918   -3055.6394    -2607.617   -928.72079    12431.225 
   40000    293.12436    246.27949   -3042.6497   -2606.6494   -675.48183    12436.824 
   40050    312.96459    252.11837   -3070.6123   -2605.1012   -1305.8651    12441.793 
   40100    289.45198    251.34072   -3044.6908   -2614.1529   -602.00877    12445.955 
   40150    295.26943    251.49908   -3049.9694   -2610.7785   -830.59376    12449.575 
   40200    291.83693    251.32669    -3044.223   -2610.1377   -782.71231    12452.603 
   40250    284.51563    251.06753   -3035.5842   -2612.3887    -550.2187    12455.056 
   40300    286.48658    251.09401   -3036.4672   -2610.3401   -497.58999    12457.056 
   40350    291.06462    251.24751   -3041.5837   -2608.6472   -526.06856    12458.599 
   40400     279.2389    250.88537   -3029.5125   -2614.1658   -215.93008    12459.711 
   40450    289.42516    251.21543   -3040.5143   -2610.0163   -682.35741    12460.515 
   40500     299.1774    251.54285   -3051.4283   -2606.4246   -1070.8722    12460.783 
   40550    295.16808    251.33142   -3044.3808   -2605.3406   -909.07935    12460.313 
   40600    284.80611     250.9761   -3032.5368   -2608.9093   -597.34143    12459.194 
   40650    296.09595    251.38768    -3046.256   -2605.8357    -955.9533    12457.545 
   40700    288.72833    251.04874   -3034.9578   -2605.4963   -736.86136    12455.263 
   40750    294.77709    251.26793   -3042.2643   -2603.8057   -894.45907    12452.384 
   40800    290.91571    251.15439   -3038.4797   -2605.7646   -744.57834    12448.875 
   40850     292.8136    251.20653   -3040.2176   -2604.6796   -724.86371    12444.778 
   40900     288.1958    250.92225   -3030.7417   -2602.0722   -547.54672    12440.145 
   40950    297.24249    251.31137   -3043.7123   -2601.5867   -857.82853    12435.023 
   41000    293.41902    251.09984   -3036.6614   -2600.2229   -568.02316    12429.308 
   41050     284.5379     255.8004     -3026.68   -2603.4514   -90.016958    12423.139 
   41100    294.38488    256.13543   -3037.8477   -2599.9725   -238.12877    12416.757 
   41150    303.52965    256.43333   -3047.7775   -2596.3002     -353.058    12410.109 
   41200    287.09051    255.70847   -3023.6156   -2596.5903    290.34378    12403.181 
   41250    292.08389    255.93946   -3031.3152   -2596.8626    131.66979    12396.246 
   41300    297.18389    256.11709   -3037.2363   -2595.1978    133.98539    12389.264 
   41350    288.53067    255.87235   -3029.0783   -2599.9108    535.47776    12382.254 
   41400    293.72765    256.05824   -3035.2746    -2598.377    405.36848    12375.391 
   41450    295.89751    256.09975   -3036.6582   -2596.5331    387.65887    12368.649 
   41500    305.30639     256.4084   -3046.9466   -2592.8265    131.84162    12361.992 
   41550    309.91111    256.57022   -3052.3408   -2591.3715    60.272652    12355.287 
   41600    308.06115    256.33425   -3044.4749   -2586.2572    345.46722    12348.505 
   41650    307.97816    256.28195   -3042.7316   -2584.6374    673.16068     12341.76 
   41700    289.32185     255.5994   -3019.9801   -2589.6357    1445.7652    12335.309 
   41750    308.12748    256.29487   -3043.1624   -2584.8461    852.86699    12329.463 
   41800    306.79355    256.21735   -3040.5783   -2584.2462    916.60198    12324.001 
   41850    298.03428    255.85534   -3028.5114    -2585.208    1348.7187    12318.936 
   41900    313.01876    256.30009   -3043.3363   -2577.7446    1046.7947    12314.442 
   41950    318.67674    256.44307   -3048.1023   -2574.0948    950.06642    12310.417 
   42000    321.31046    256.51457   -3050.4856   -2572.5607    923.09487    12306.777 
   42050    322.92584    251.60272   -3053.4241   -2573.0964    970.34162    12303.503 
   42100    301.37394    250.85735   -3028.5782   -2580.3074    1751.3196    12300.651 
   42150    296.80247    250.75298   -3025.0995   -2583.6283    1883.5497    12298.568 
   42200    313.95728    251.21545   -3040.5151   -2573.5274    1230.4964    12297.343 
   42250    323.24119    251.48168   -3049.3892   -2568.5924    867.02685    12296.657 
   42300     313.0736    251.07224   -3035.7413   -2570.0681    1210.5912    12296.349 
   42350    320.40298    251.38334   -3046.1114   -2569.5363    1075.8991    12296.512 
   42400    313.13729    251.10185   -3036.7284   -2570.9604    1359.3948    12297.147 
   42450    320.71391    251.43722   -3047.9072   -2570.8696    1062.7371    12298.351 
   42500    315.59067    251.20729   -3040.2432   -2570.8259    1239.2094    12300.014 
   42550    312.46519    251.10293   -3036.7643    -2571.996    1341.1183     12302.19 
   42600    312.09595    251.12011   -3037.3369   -2573.1179    1303.7519    12304.963 
   42650    312.64405    251.11086   -3037.0286   -2571.9943    1283.0985     12308.31 
   42700    305.47176    250.87495    -3029.165   -2574.7989    1478.6786     12312.23 
   42750    322.94201    251.54218   -3051.4061   -2571.0544    841.45234    12316.759 
   42800    328.92675    251.74138    -3058.046   -2568.7924    580.40127    12321.624 
   42850    319.15732    251.50252   -3050.0841   -2575.3617    823.28819    12326.689 
   42900    312.14045    251.28803   -3042.9343   -2578.6491    914.01414    12332.056 
   42950    305.55848    251.03734    -3034.578    -2580.083     1060.273    12337.783 
   43000    305.64944    251.07704   -3035.9012   -2581.2708    1033.1382    12343.944 
   43050    298.62215    255.71375   -3023.7916   -2579.6137     1209.838    12350.562 
   43100    300.91606    255.85916   -3028.6387   -2581.0489    908.40763    12357.696 
   43150    312.00939    256.29671   -3043.2237   -2579.1334    313.36096    12365.196 
   43200     312.1306    256.31441   -3043.8138   -2579.5432    158.95407    12372.756 
   43250    313.02626    256.38404   -3046.1346   -2580.5317   -10.233795    12380.277 
   43300    316.97402    256.68337   -3056.1122   -2584.6374    -216.3723    12387.648 
   43350    295.66093    255.84505   -3028.1685   -2588.3953     521.9894    12394.814 
   43400     288.1394    255.61047   -3020.3489   -2591.7634    674.35961    12402.126 
   43450    303.06737    256.21267   -3040.4223   -2589.6326    5.6377544    12409.643 
   43500    288.72704    255.68016   -3022.6719   -2593.2123    284.04433    12417.092 
   43550     287.9836    255.61131   -3020.3769   -2592.0231    208.99286     12424.55 
   43600    295.31303    255.89095   -3029.6985   -2590.4427   -85.069551    12431.969 
   43650    294.49561    255.91014   -3030.3381   -2592.2982   -131.57352    12439.229 
   43700    297.98846    256.04893   -3034.9642   -2591.7289   -343.63937    12446.266 
   43750    278.99039    255.52338   -3017.4459   -2602.4688    39.943796    12453.009 
   43800    291.31753    256.03567   -3034.5224   -2601.2096   -506.14733     12459.59 
   43850    297.43936    256.21938   -3040.6462   -2598.2277   -732.42604    12465.777 
   43900    281.57485    255.61213   -3020.4044   -2601.5831   -245.51956    12471.451 
   43950    277.04715     255.5003   -3016.6768   -2604.5901   -153.88702    12476.824 
   44000    283.22514    255.70061   -3023.3536   -2602.0777   -386.08836    12481.965 
[...]
   89400     295.5924    256.32936    -3044.312   -2604.6407     77.08463    12379.097 
   89450    291.08175    256.17329   -3039.1095   -2606.1475    310.43317      12372.6 
   89500    295.64399    256.34852   -3044.9507   -2605.2027    71.661311     12366.14 
   89550    302.94419     256.6955   -3056.5167   -2605.9102   -136.11454    12359.604 
   89600    288.98508    256.17763   -3039.2542   -2609.4108    459.45486     12352.94 
   89650    297.74046    256.58579   -3052.8596   -2609.9932    143.55386     12346.37 
   89700    307.49493    256.96254   -3065.4181   -2608.0427   -172.22939    12339.774 
   89750    285.79162    256.14078   -3038.0259   -2612.9325    591.97661     12333.05 
   89800    286.34511    256.19865   -3039.9551   -2614.0384    618.57824    12326.494 
   89850    288.89167    256.32566   -3044.1888   -2614.4843    670.68749    12320.183 
   89900    295.52601    256.62946   -3054.3152   -2614.7427    577.83274    12314.146 
   89950    304.64871     256.9972   -3066.5732   -2613.4313    289.03223    12308.317 
   90000    306.81274    257.14001   -3071.3338   -2614.9731    251.70577    12302.535 
   90050    295.80263    256.68806   -3056.2686   -2616.2846    697.05445    12296.811 
   90100     292.9658    256.59324   -3053.1081   -2617.3436    819.86436    12291.351 
   90150    294.82141    256.67264   -3055.7547   -2617.2302    788.90309     12286.22 
   90200    301.64152    257.03883   -3067.9611   -2619.2923    576.90437     12281.41 
   90250    303.16635    257.08107    -3069.369    -2618.432    592.47954    12276.834 
   90300     294.5964    256.74066   -3058.0221   -2619.8323    894.32488    12272.482 
   90350    299.55039    256.96726   -3065.5752   -2620.0167    662.99015    12268.474 
   90400    303.49196    257.10824   -3070.2748   -2618.8535    498.85332    12264.722 
   90450    305.87462    257.25768    -3075.256   -2620.2906    437.81987    12261.122 
   90500    291.23166    256.66879   -3055.6264   -2622.4414    990.30587      12257.7 
   90550    300.88184    257.00277   -3066.7589   -2619.2199     734.2966    12254.659 
   90600    285.99263    256.49736   -3049.9121   -2624.5197    1215.1561    12251.955 
   90650    298.63798    256.91497   -3063.8322   -2619.6308    841.74451    12249.737 
   90700    300.19982    257.00026   -3066.6754   -2620.1509    803.22044    12247.884 
   90750    296.44698    256.94918   -3064.9727   -2624.0303    922.08027    12246.354 
   90800    303.90539    257.23155   -3074.3849   -2622.3486    725.26579    12245.203 
   90850    305.91824    257.34594   -3078.1979   -2623.1677    691.90063    12244.329 
   90900    299.37547    257.07458   -3069.1528   -2623.8545    796.83743    12243.713 
   90950     305.2064    257.35594   -3078.5314     -2624.56     463.3504     12243.37 
   91000    301.73931    257.17561   -3072.5202   -2623.7059    609.26166    12243.191 
   91050    299.06252     257.1559   -3071.8632   -2627.0304    759.02587    12243.217 
   91100     295.6291    257.05561   -3068.5204   -2628.7945    926.89937    12243.534 
   91150    301.08724    257.23566   -3074.5219   -2626.6775    701.26416    12244.207 
   91200    289.49899    256.69692   -3056.5639   -2625.9561    1113.8963    12245.178 
   91250    288.17047    256.70232   -3056.7441   -2628.1124    1137.5483    12246.617 
   91300     305.9953    257.43804    -3081.268   -2626.1232    441.80916    12248.509 
   91350    301.96314    257.15308   -3071.7694   -2622.6221    496.13761    12250.556 
   91400    305.08609    257.31214   -3077.0714    -2623.279    308.00407    12252.712 
   91450    301.85408    257.17355   -3072.4517   -2623.4666    431.36516    12254.911 
   91500    293.74282    256.90002   -3063.3339   -2626.4137    685.50849    12257.215 
   91550    301.52467    257.11129   -3070.3762   -2621.8811    469.56858    12259.718 
   91600    297.01407     257.0183   -3067.2766   -2625.4907    616.05631    12262.362 
   91650    292.51603    256.79547   -3059.8491   -2624.7537    844.91272    12265.218 
   91700    285.74647    256.55174   -3051.7248   -2626.6986    991.45407     12268.41 
   91750    298.18999    257.05919   -3068.6397   -2625.1046    507.00188    12271.972 
   91800    300.89934    257.14631   -3071.5436   -2623.9786    402.82537    12275.702 
   91850    300.21896    257.12771   -3070.9236   -2624.3706    428.78439    12279.511 
   91900    292.51243    256.73038   -3057.6793   -2622.5892     700.4554    12283.433 
   91950     297.7571    256.98445   -3066.1483   -2623.2572    383.00611    12287.569 
   92000    299.55046    257.05033   -3068.3443   -2622.7857    261.47279    12291.794 
   92050    295.63376    251.93615   -3064.5384   -2624.8056    355.18888    12296.028 
   92100    291.34906    251.66546   -3055.5152   -2622.1556     470.2391    12300.307 
   92150    300.36799    252.10455   -3070.1515   -2623.3769    106.72078     12304.65 
   92200    294.45309    251.89597   -3063.1991   -2625.2224    352.14913    12308.935 
   92250    288.41811    251.66302   -3055.4339   -2626.4338    497.73466    12313.244 
   92300    285.41841    251.52922   -3050.9739   -2626.4357    372.30254    12317.683 
   92350    302.63066    252.17513   -3072.5044   -2622.3642   -276.36096    12322.142 
   92400    295.53174    251.89229   -3063.0764   -2623.4954    73.531221    12326.348 
   92450    291.72056    251.62096    -3054.032   -2620.1198    336.12571    12330.415 
   92500    288.10495    251.51951   -3050.6504   -2622.1161     379.4189    12334.506 
   92550    292.47472    251.66349   -3055.4496   -2620.4156    238.51342    12338.647 
   92600    283.06815    251.40482   -3046.8272   -2625.7848     441.5092    12342.791 
   92650    308.65134    252.23379   -3074.4598   -2615.3643   -442.94369    12346.946 
   92700    302.87503    251.93475   -3064.4916   -2613.9879   -299.02651    12350.769 
   92750    305.74888    251.89108   -3063.0361   -2608.2578   -175.28516    12354.246 
   92800    285.40896    251.01825   -3033.9417   -2609.4175    621.57505    12357.521 
   92850    290.94075     251.2752   -3042.5067   -2609.7543    399.98187    12360.924 
   92900    300.95447     251.5108   -3050.3601   -2602.7132    41.923851    12364.396 
   92950    304.55882    251.45452   -3048.4841   -2595.4759    5.3236477    12367.756 
   93000    308.44509     251.5823   -3052.7434   -2593.9547   -110.54445    12370.956 
   93050    322.68789    252.10174    -3070.058   -2590.0842   -555.41335    12373.908 
   93100    311.91256    251.54082   -3051.3607   -2587.4145   -112.54325    12376.452 
   93150    313.99004    251.59777   -3053.2589   -2586.2225   -120.78837    12378.732 
   93200    304.87121    251.16325   -3038.7751   -2585.3023    277.45143    12380.817 
   93250    299.03228    250.77638   -3025.8792   -2581.0913    578.19445    12382.906 
   93300    309.61191    251.04879   -3034.9597   -2574.4354    323.20494    12385.118 
   93350    301.84999    250.76505   -3025.5018   -2576.5228    592.95896    12387.387 
   93400    312.44595    251.15561   -3038.5204   -2573.7807    276.50775    12389.795 
   93450     301.3985    250.64529   -3021.5098   -2573.2024    674.39229    12392.253 
   93500    323.64007    251.39101   -3046.3672   -2564.9771    3.2924665    12394.857 
   93550     320.8297    251.15791   -3038.5972   -2561.3873    102.03543     12397.35 
   93600    303.14868    250.49821   -3016.6069   -2565.6962    598.13275    12399.753 
   93650    321.94561    251.19506   -3039.8353   -2560.9656   -35.233978    12402.244 
   93700    313.22848    250.86192   -3028.7306   -2562.8269    261.00263    12404.598 
   93750    309.54718    250.76978   -3025.6593   -2565.2313    375.90918    12406.933 
   93800     324.2582    251.27569    -3042.523   -2560.2135    -105.9824    12409.294 
   93850    311.65194    250.69155   -3023.0517   -2559.4931    364.50806    12411.486 
   93900    302.22623    250.32179   -3010.7264   -2561.1877    694.08194    12413.698 
   93950    312.48173    250.65876   -3021.9587   -2557.1659    345.79326    12416.106 
   94000    311.90182    250.70037   -3023.3455   -2559.4152    348.08951    12418.572 
   94050     299.0086    245.25629   -3008.5431   -2563.7904    768.99632    12421.074 
   94100    306.61257     245.5812   -3019.3733   -2563.3103    488.17181    12423.801 
   94150     324.9566    246.24423   -3041.4742   -2558.1259   -106.60575    12426.616 
   94200    320.35176    246.06027   -3035.3425   -2558.8435   -3.2871494    12429.218 
   94250    324.40379    246.12668   -3037.5561     -2555.03   -163.64795    12431.602 
   94300     312.4537    245.68691   -3022.8971   -2558.1459    187.60342    12433.734 
   94350    318.36813    246.04144   -3034.7145    -2561.166   -116.06316    12435.745 
   94400    307.53267    245.61698    -3020.566   -2563.1345    237.94652    12437.545 
   94450    297.07553    245.21928   -3007.3092   -2565.4319    558.48183    12439.305 
   94500    326.51248    246.32788   -3044.2627   -2558.6001   -471.99469    12441.125 
   94550    310.34604    245.74925   -3024.9751   -2563.3588   -32.330103    12442.586 
   94600    321.50094     246.1416   -3038.0532   -2559.8449   -302.82619    12443.794 
   94650    310.64768    245.83901   -3027.9671   -2565.9022    2.6003925    12444.704 
   94700    305.63762    245.69218   -3023.0728     -2568.46    47.681912    12445.428 
   94750    318.42441    246.22684   -3040.8947   -2567.2625    -396.8387    12445.957 
   94800     304.7311    245.72805   -3024.2685   -2571.0041     41.35568    12446.136 
   94850    308.18494    245.82197   -3027.3991   -2568.9973   -124.74325    12446.131 
   94900    314.45638     246.0491   -3034.9699   -2567.2398   -398.76679     12445.88 
   94950    308.13723    245.87306   -3029.1021   -2570.7713   -317.53459    12445.262 
   95000    323.09964    246.48696   -3049.5652    -2568.979   -765.32829    12444.256 
   95050     312.7757    251.08157   -3036.0525   -2570.8223   -345.15299    12442.712 
   95100    302.78852    250.78772   -3026.2573   -2575.8823   -87.377243    12440.815 
   95150    311.00707    251.24927   -3041.6422   -2579.0427   -438.78779    12438.691 
   95200    310.66256    251.29803   -3043.2677   -2581.1807   -481.40125    12436.205 
   95250    300.11756    250.95448    -3031.816   -2585.4138   -175.35833    12433.331 
   95300    305.43747    251.21781   -3040.5937   -2586.2786   -386.08824    12430.175 
   95350    305.32121    251.21177   -3040.3923   -2586.2501   -464.45465    12426.673 
   95400     310.2997    251.41629   -3047.2098   -2585.6625   -565.28795    12422.757 
   95450    291.62226    250.79856   -3026.6185   -2592.8525    103.81671    12418.441 
   95500    288.20644    250.71674   -3023.8915   -2595.2062    241.87201    12414.032 
   95550    295.60833    251.10376   -3036.7921   -2597.0972   -5.9010371    12409.612 
   95600    289.55628    250.86646   -3028.8819   -2598.1889     135.6823      12405.1 
   95650    293.44875    251.10509   -3036.8362   -2600.3534   -111.74325    12400.508 
   95700    286.97269    250.85832   -3028.6107   -2601.7606    102.74963     12395.75 
   95750    301.12755    251.43134   -3047.7114    -2599.807   -224.83093    12390.876 
   95800    297.93383    251.29191   -3043.0637   -2599.9097   -6.7755247    12385.787 
   95850    291.49707     251.0563     -3035.21   -2601.6302    244.62784    12380.582 
   95900    300.02949    251.36656   -3045.5519   -2599.2808    26.456246    12375.355 
   95950    296.54038    251.35259   -3045.0863    -2604.005    135.37992    12370.042 
   96000    281.23976    250.81534    -3027.178   -2608.8551    656.21168    12364.715 
   96050    291.88055    251.19958   -3039.9859   -2605.8357    295.96631     12359.58 
   96100     310.2874    251.86342   -3062.1141   -2600.5851   -295.44944     12354.49 
   96150    309.18262    251.89821   -3063.2735   -2603.3878   -244.39812    12349.149 
   96200    305.38138    251.82091   -3060.6969   -2606.4652   -19.636516    12343.549 
   96250    295.58968    251.50687   -3050.2291   -2610.5618    402.78565     12337.82 
   96300    294.15785    251.46819   -3048.9396   -2611.4021    524.34107    12332.172 
   96350    297.50663    251.63436   -3054.4787   -2611.9601    453.07693    12326.697 
   96400    305.46182    251.89436   -3063.1454   -2608.7941      270.354    12321.348 
   96450    295.84449    251.49237   -3049.7455   -2609.6993    709.41114    12316.065 
   96500    298.91433    251.64284   -3054.7613   -2610.1489    591.98905    12311.018 
   96550    297.20965    251.61027   -3053.6758    -2611.599    531.64073    12306.195 
   96600    297.15039    251.65488   -3055.1626   -2613.1739    461.70013    12301.534 
   96650    295.86778    251.56152   -3052.0506   -2611.9697    508.40175    12297.024 
   96700    315.60544    252.27627   -3075.8758   -2606.4366   -26.941288    12292.642 
   96750    309.05193    252.12663   -3070.8877   -2611.1964    237.95872    12288.176 
   96800     292.9527    251.59605   -3053.2015   -2617.4566    801.00594    12283.737 
   96850    300.88552    251.83784   -3061.2612   -2613.7168    547.96509    12279.569 
   96900    299.98725    251.76936   -3058.9786   -2612.7703    581.49125    12275.595 
   96950    303.33042    251.94207   -3064.7357   -2613.5547    508.16042    12271.809 
   97000    304.65207    252.05628   -3068.5428    -2615.396    488.78454    12268.183 
   97050    302.97608    246.96863   -3065.6208   -2614.9669    537.96001    12264.698 
   97100    313.36936      247.409      -3080.3   -2614.1869     154.5661    12261.346 
   97150    315.56498     247.4882   -3082.9401   -2613.5611    171.11607    12257.949 
   97200    301.83058    247.00645   -3066.8818   -2617.9317    671.55484     12254.54 
   97250    308.10713    247.34003   -3078.0009   -2619.7149    484.71477    12251.316 
   97300    297.43591      246.878   -3062.6001   -2620.1867    918.97698    12248.261 
   97350    306.66473    247.31678   -3077.2261   -2621.0855    647.18165    12245.516 
   97400    311.67019    247.52029   -3084.0096   -2620.4238     532.8134    12242.987 
   97450    295.71502    246.98882   -3066.2941   -2626.4404    1023.1791    12240.643 
   97500    303.93284    247.16472   -3072.1573   -2620.0803    754.74609    12238.666 
   97550    300.85681    247.12798   -3070.9327    -2623.431    743.52578    12236.968 
   97600    301.12673    247.17105   -3072.3683   -2624.4651    681.26538    12235.528 
   97650    300.37153    247.09842   -3069.9473   -2623.1674    779.75172    12234.318 
   97700    294.77333    246.90648   -3063.5492   -2625.0963     1081.017    12233.396 
   97750    300.95348    247.17889   -3072.6297   -2624.9842    900.71853    12232.897 
   97800    310.05825    247.58447   -3086.1489   -2624.9608    525.68505    12232.728 
   97850    309.96332    247.64661   -3088.2203   -2627.1734    463.48977    12232.697 
   97900    310.18158    247.63549   -3087.8496    -2626.478    422.74768    12232.757 
   97950    304.10453    247.43041   -3081.0135   -2628.6811    584.85312    12232.911 
   98000    306.13656    247.50574   -3083.5246   -2628.1697    473.20407    12233.196 
   98050    305.60366     252.6548   -3088.4934   -2633.9311    355.10633     12233.58 
   98100     290.6894    252.14993   -3071.6644   -2639.2859    813.49445    12234.056 
   98150     290.1042    252.16549    -3072.183    -2640.675     862.2578    12234.817 
   98200    289.56108     252.1071   -3070.2365   -2639.5364     840.5545    12235.904 
   98250    287.65788    252.13842   -3071.2806   -2643.4113    836.78588    12237.299 
   98300    297.08627    252.56232   -3085.4105   -2643.5172    439.75881    12238.991 
   98350    302.55372    252.77224   -3092.4079   -2642.3821    187.31392    12240.783 
   98400    292.47272    252.38655   -3079.5518   -2644.5208     460.8888    12242.551 
   98450     291.0725    252.30266   -3076.7552    -2643.807    525.29532     12244.41 
   98500    285.50315    252.12862   -3070.9539   -2646.2896    660.52463    12246.401 
   98550    285.62277     252.2449   -3074.8301   -2649.9879    489.29495    12248.587 
   98600    283.92018    252.25533   -3075.1778   -2652.8681    352.38264    12250.904 
   98650    284.70076    252.31362   -3077.1205   -2653.6497    238.29623     12253.26 
   98700    292.77634    252.58174   -3086.0579   -2650.5753    10.597835    12255.581 
   98750    277.60782    251.99946   -3066.6486    -2653.728    498.07004    12257.822 
   98800    285.20868    252.33637   -3077.8791   -2653.6528    231.86166    12260.139 
   98850    281.76912       252.23   -3074.3333   -2655.2231    330.70621     12262.46 
   98900    282.71744    252.29819   -3076.6064   -2656.0857    218.23515    12264.796 
   98950    295.34709    252.67726   -3089.2419   -2649.9355   -293.23034    12267.083 
   99000    291.44919    252.60564   -3086.8547   -2653.3461   -255.30106    12269.093 
   99050    279.12271    252.18588   -3072.8627   -2657.6888    157.55451     12270.82 
   99100    286.36514    252.50679   -3083.5598   -2657.6134    -98.27722    12272.453 
   99150    291.04576    252.68824   -3089.6081   -2656.6996    -193.8765    12273.905 
   99200    276.23015    252.14504   -3071.5014     -2660.63    319.81613     12275.14 
   99250    284.63125    252.44042   -3081.3473   -2657.9799   -12.809962    12276.346 
   99300    283.48195    252.49869   -3083.2897   -2661.6318   -92.769473    12277.414 
   99350    285.14971     252.5593     -3085.31   -2661.1714   -159.45827    12278.286 
   99400    277.27219     252.2804   -3076.0133    -2663.592    15.857902    12278.946 
   99450    285.09376    252.59706   -3086.5688   -2662.5135   -324.89355     12279.44 
   99500    275.86353    252.24434   -3074.8114   -2664.4853   -33.431466    12279.663 
   99550    278.72062    252.19642   -3073.2141   -2658.6383   0.42148456    12279.708 
   99600    284.64679    252.45456   -3081.8186   -2658.4281   -155.88721    12279.602 
   99650     275.2238    252.14572    -3071.524   -2662.1495      203.752    12279.306 
   99700    283.46303    252.45631   -3081.8771   -2660.2473     8.192976    12278.955 
   99750    282.65904    252.45121   -3081.7071   -2661.2732     43.50184      12278.5 
   99800    283.18815    252.41347    -3080.449   -2659.2281    64.277717    12277.928 
   99850    280.69081    252.36061    -3078.687   -2661.1807    77.825534    12277.252 
   99900    281.61907    252.36075   -3078.6916   -2659.8046   -4.6472949    12276.471 
   99950    284.97875    252.45143   -3081.7143     -2657.83   -74.525367    12275.555 
  100000    280.25002    252.28084   -3076.0281   -2659.1775    137.94754    12274.482 
Loop time of 27.3219 on 1 procs for 100000 steps with 500 atoms

Performance: 316.230 ns/day, 0.076 hours/ns, 3660.069 timesteps/s
99.8% CPU use with 1 MPI tasks x 1 OpenMP threads

MPI task timing breakdown:
Section |  min time  |  avg time  |  max time  |%varavg| %total
---------------------------------------------------------------
Pair    | 21.735     | 21.735     | 21.735     |   0.0 | 79.55
Bond    | 0.0073137  | 0.0073137  | 0.0073137  |   0.0 |  0.03
Neigh   | 0.53359    | 0.53359    | 0.53359    |   0.0 |  1.95
Comm    | 0.77421    | 0.77421    | 0.77421    |   0.0 |  2.83
Output  | 0.018425   | 0.018425   | 0.018425   |   0.0 |  0.07
Modify  | 2.7461     | 2.7461     | 2.7461     |   0.0 | 10.05
Other   |            | 1.507      |            |       |  5.52

Nlocal:    500 ave 500 max 500 min
Histogram: 1 0 0 0 0 0 0 0 0 0
Nghost:    1565 ave 1565 max 1565 min
Histogram: 1 0 0 0 0 0 0 0 0 0
Neighs:    14473 ave 14473 max 14473 min
Histogram: 1 0 0 0 0 0 0 0 0 0

Total # of neighbors = 14473
Ave neighs/atom = 28.946
Ave special neighs/atom = 0
Neighbor list builds = 649
Dangerous builds = 0

write_data      ${walker}/final_restart_file
write_data      5/final_restart_file

quit
