LAMMPS (17 Nov 2016)
Running on 4 partitions of processors
Step T0 T1 T2 T3
0 0 1 2 3
100 0 1 2 3
200 0 1 2 3
300 0 1 2 3
400 0 1 2 3
500 0 1 2 3
600 0 1 2 3
700 0 1 2 3
800 0 1 2 3
900 0 1 2 3
1000 0 1 2 3
1100 0 1 2 3
1200 0 1 2 3
1300 0 1 2 3
1400 0 1 2 3
1500 0 1 2 3
1600 0 1 2 3
1700 0 1 2 3
1800 0 1 2 3
1900 0 1 2 3
2000 0 1 2 3
2100 0 1 2 3
2200 0 1 2 3
2300 0 2 1 3
2400 0 1 2 3
2500 0 1 2 3
2600 0 1 2 3
2700 0 1 2 3
2800 0 1 2 3
2900 0 1 2 3
3000 0 1 2 3
3100 0 2 1 3
3200 0 2 1 3
3300 0 1 2 3
3400 0 2 1 3
3500 0 2 1 3
3600 0 1 2 3
3700 0 1 2 3
3800 0 1 2 3
3900 0 2 1 3
4000 0 1 2 3
4100 0 1 2 3
4200 0 1 2 3
4300 0 1 2 3
4400 0 1 2 3
4500 0 2 1 3
4600 0 2 1 3
4700 0 2 1 3
4800 0 2 1 3
4900 0 2 1 3
5000 0 2 1 3
5100 0 2 1 3
5200 0 1 2 3
5300 0 2 1 3
5400 0 1 2 3
5500 0 1 2 3
5600 0 1 2 3
5700 0 1 2 3
5800 0 1 2 3
5900 0 1 2 3
6000 0 1 2 3
6100 0 1 2 3
6200 0 1 2 3
6300 0 1 2 3
6400 0 1 2 3
6500 0 1 2 3
6600 0 1 2 3
6700 0 1 2 3
6800 0 1 2 3
6900 0 1 2 3
7000 0 1 2 3
7100 0 1 2 3
7200 0 1 2 3
7300 0 1 2 3
7400 0 1 2 3
7500 0 1 2 3
7600 0 1 2 3
7700 0 1 2 3
7800 0 1 2 3
7900 0 1 2 3
8000 0 1 2 3
8100 0 1 2 3
8200 0 1 2 3
8300 0 1 2 3
8400 0 1 2 3
8500 0 1 2 3
8600 0 1 2 3
8700 0 1 2 3
8800 0 1 2 3
8900 0 1 2 3
9000 0 1 2 3
9100 0 1 2 3
9200 0 1 2 3
9300 0 1 2 3
9400 0 1 2 3
9500 0 1 2 3
9600 0 1 2 3
9700 0 1 2 3
9800 0 1 2 3
9900 0 1 2 3
10000 1 0 3 2
