LAMMPS (19 May 2017)
Running on 4 partitions of processors
Step T0 T1 T2 T3
0 0 1 2 3
100 0 1 2 3
200 0 1 2 3
300 0 1 2 3
400 0 1 2 3
500 0 1 2 3
600 0 1 2 3
700 0 1 2 3
800 0 1 2 3
900 0 1 2 3
1000 0 1 2 3
1100 0 1 2 3
1200 0 1 2 3
1300 0 1 2 3
1400 0 2 1 3
1500 0 2 1 3
1600 0 1 2 3
1700 0 1 2 3
1800 0 1 2 3
1900 0 1 2 3
2000 0 1 2 3
2100 0 1 2 3
2200 0 2 1 3
2300 0 2 1 3
2400 0 2 1 3
2500 0 2 1 3
2600 0 2 1 3
2700 0 2 1 3
2800 0 2 1 3
2900 0 2 1 3
3000 0 2 1 3
3100 0 2 1 3
3200 0 2 1 3
3300 0 2 1 3
3400 0 2 1 3
3500 1 2 0 3
3600 1 2 0 3
3700 1 2 0 3
3800 1 2 0 3
3900 1 2 0 3
4000 1 2 0 3
4100 1 2 0 3
4200 1 2 0 3
4300 1 2 0 3
4400 1 2 0 3
4500 1 2 0 3
4600 1 2 0 3
4700 1 2 0 3
4800 1 2 0 3
4900 1 2 0 3
5000 1 2 0 3
5100 1 3 0 2
5200 1 3 0 2
5300 1 3 0 2
5400 1 3 0 2
5500 1 3 0 2
5600 1 2 0 3
5700 1 2 0 3
5800 1 3 0 2
5900 1 3 0 2
6000 1 3 0 2
6100 1 3 0 2
6200 1 3 0 2
6300 1 3 0 2
6400 1 3 0 2
6500 1 3 0 2
6600 1 3 0 2
6700 1 3 0 2
6800 1 3 0 2
6900 1 3 0 2
7000 1 3 0 2
7100 1 3 0 2
7200 1 3 0 2
7300 1 3 0 2
7400 1 3 0 2
7500 1 3 0 2
7600 1 3 0 2
7700 1 3 0 2
7800 1 3 0 2
7900 1 3 0 2
8000 1 3 0 2
8100 1 3 0 2
8200 1 3 0 2
8300 1 3 0 2
8400 1 3 0 2
8500 1 3 0 2
8600 1 3 0 2
8700 1 3 0 2
8800 0 3 1 2
8900 0 3 1 2
9000 0 3 1 2
9100 0 3 1 2
9200 0 3 1 2
9300 0 3 1 2
9400 0 3 1 2
9500 0 3 1 2
9600 0 3 1 2
9700 0 3 1 2
9800 0 3 1 2
9900 1 3 0 2
10000 0 3 1 2
