LAMMPS (19 May 2017)
Processor partition = 1
  using 1 OpenMP thread(s) per MPI task
# gREM variables
variable        lambda world 1000 1005 1010 1015 1020 1025 1030 1035 1040 1045 1050 1055 1060 1065 1070 1075
variable        walker world 0 1 2 3 4 5 6 7 8 9 10 11 12 13 14 15
variable        replica world 1 3 7 2 4 6 5 8 11 14 0 10 12 13 9 15

variable        T0 equal 300.0
variable        press equal 0.0

units           real
atom_style      full
pair_style      lj/cut 5.0

# LJ particles
read_data       ${walker}/restart_file
read_data       1/restart_file
  orthogonal box = (1.067 1.067 1.067) to (23.933 23.933 23.933)
  1 by 1 by 1 MPI processor grid
  reading atoms ...
  500 atoms
  reading velocities ...
  500 velocities
  0 = max # of 1-2 neighbors
  0 = max # of 1-3 neighbors
  0 = max # of 1-4 neighbors
  1 = max # of special neighbors

#dump            dump all xyz 1000 ${walker}/dump.xyz

fix             fxnpt all npt temp ${T0} ${T0} 1000.0 iso ${press} ${press} 10000.0
fix             fxnpt all npt temp 300 ${T0} 1000.0 iso ${press} ${press} 10000.0
fix             fxnpt all npt temp 300 300 1000.0 iso ${press} ${press} 10000.0
fix             fxnpt all npt temp 300 300 1000.0 iso 0 ${press} 10000.0
fix             fxnpt all npt temp 300 300 1000.0 iso 0 0 10000.0
fix             fxgREM all grem ${lambda} -.03 -30000 fxnpt
fix             fxgREM all grem 1005 -.03 -30000 fxnpt
thermo_modify   press fxgREM_press

thermo          50
thermo_style    custom step temp f_fxgREM pe etotal press vol
WARNING: New thermo_style command, previous thermo_modify settings will be lost (../output.cpp:705)
timestep        1.0

temper/grem     100000 1000 ${lambda} fxgREM fxnpt 10294 98392 ${walker}
temper/grem     100000 1000 1005 fxgREM fxnpt 10294 98392 ${walker}
temper/grem     100000 1000 1005 fxgREM fxnpt 10294 98392 1
Neighbor list info ...
  update every 1 steps, delay 10 steps, check yes
  max neighbors/atom: 2000, page size: 100000
  master list distance cutoff = 7
  ghost atom cutoff = 7
  binsize = 3.5, bins = 7 7 7
  1 neighbor lists, perpetual/occasional/extra = 1 0 0
  (1) pair lj/cut, perpetual
      attributes: half, newton on
      pair build: half/bin/newton
      stencil: half/bin/3d/newton
      bin: standard
Per MPI rank memory allocation (min/avg/max) = 5.722 | 5.722 | 5.722 Mbytes
Step Temp f_fxgREM PotEng TotEng Press Volume 
       0     302.2256     200.6748     -3189.16   -2739.6223    294.61454    11955.571 
      50    307.77717    200.87241   -3195.7469   -2737.9517    189.87689      11955.5 
     100    304.19485    200.70744    -3190.248   -2737.7812    279.76215    11955.241 
     150    305.59962    200.74353   -3191.4509   -2736.8946    313.09201     11954.82 
     200    300.66817    200.61505   -3187.1682   -2739.9471    551.28054    11954.277 
     250    303.15341    200.76721   -3192.2402   -2741.3225    380.52515    11953.709 
     300     311.6718     201.0174   -3200.5801   -2736.9919    42.858855     11953.05 
     350    304.64792     200.7657   -3192.1899   -2739.0492    255.64478    11952.137 
     400    308.51884    200.84019   -3194.6729   -2735.7745    217.57829    11951.041 
     450    306.62149    200.66872   -3188.9574   -2732.8812    335.15738    11949.784 
     500    311.70013    200.86483   -3195.4944   -2731.8641    245.58448    11948.377 
     550    312.43857    201.01621   -3200.5404   -2735.8117    251.74644    11946.809 
     600     305.4848    200.90045   -3196.6818   -2742.2963    470.24201    11945.075 
     650    284.44966    200.17149   -3172.3831   -2749.2858    1086.1559    11943.314 
     700    307.19415    200.86984   -3195.6613   -2738.7333    422.02443    11941.759 
     750     309.4904    201.07105   -3202.3682   -2742.0247    242.10079    11940.155 
     800    314.90396    201.16274   -3205.4247   -2737.0289    123.57048    11938.369 
     850    298.77275    200.78642   -3192.8808    -2748.479    512.12977     11936.37 
     900     307.9373    201.06013   -3202.0044    -2743.971    296.25907    11934.299 
     950    312.78582    201.09728   -3203.2425   -2737.9973    246.73089    11932.113 
    1000    307.73652    200.98745   -3199.5817    -2741.847    474.33719    11929.764 
    1050    300.65747    200.84234   -3194.7448   -2747.5396    692.73686    11927.359 
    1100    307.41548    201.03694   -3201.2314   -2743.9742    556.72809    11925.013 
    1150    314.34489     201.3161   -3210.5365   -2742.9723     270.6006    11922.653 
    1200    304.96932    201.00039   -3200.0129   -2746.3942    418.82313    11920.143 
    1250    300.65836    200.99185   -3199.7282   -2752.5217    475.61204    11917.534 
    1300    288.61888    200.79146   -3193.0485   -2763.7498    777.34519    11914.919 
    1350    287.64353     200.7404   -3191.3466   -2763.4987    823.72782    11912.413 
    1400     285.9184    200.69278   -3189.7594   -2764.4774    840.98307    11910.064 
    1450    304.26696    201.24325   -3208.1084   -2755.5344    413.16637    11907.841 
    1500    317.15721    201.62764   -3220.9214   -2749.1741    56.017579    11905.533 
    1550    310.77201    201.48625   -3216.2082   -2753.9584     112.9444    11902.981 
    1600    294.75298    201.14812   -3204.9374   -2766.5147    529.12952    11900.203 
    1650    296.30879    201.23996   -3207.9986   -2767.2617    474.29015    11897.386 
    1700    294.68688    201.27295   -3209.0984    -2770.774     538.4046    11894.542 
    1750    286.37198    200.96193   -3198.7308   -2772.7742    837.65583    11891.696 
    1800    288.46097    201.09714   -3203.2381   -2774.1743    653.60872    11888.984 
    1850    306.96179    201.65446   -3221.8155   -2765.2331    127.42088    11886.307 
    1900    292.79469    201.31165   -3210.3883   -2774.8784    467.10731    11883.457 
    1950    299.22104    201.63079   -3221.0265   -2775.9579    240.09834    11880.529 
    2000    300.70159    201.73488   -3224.4961   -2777.2253    159.65146    11877.448 
    2050    296.26762     196.6696   -3222.3199   -2781.6443    272.98538    11874.165 
    2100    295.40015     196.6521   -3221.7367   -2782.3514    340.42809    11870.715 
    2150    300.05216    196.79364   -3226.4547   -2780.1499    232.69407    11867.123 
    2200    288.60075    196.49334   -3216.4445   -2787.1728    488.07765    11863.387 
    2250    301.97256    196.92882   -3230.9608   -2781.7995    166.99958     11859.55 
    2300    297.65151    196.71897   -3223.9658   -2781.2317      351.839    11855.523 
    2350    279.18068    196.19468   -3206.4894   -2791.2293    876.50501    11851.396 
    2400    299.37808    196.90739   -3230.2464   -2784.9442    290.20521    11847.352 
    2450    295.61588    196.90675    -3230.225   -2790.5188    348.85169    11843.206 
    2500    290.55138    196.78304   -3226.1015   -2793.9283     570.2098    11838.931 
    2550    300.17573    196.94459   -3231.4863   -2784.9977    340.94694    11834.634 
    2600    304.79162    197.07472   -3235.8241   -2782.4697    265.63572    11830.204 
    2650    291.97623    196.69583   -3223.1945    -2788.902    764.87981    11825.629 
    2700    296.04555    196.86035   -3228.6782   -2788.3329    756.95077     11821.13 
    2750    290.23466    196.79318   -3226.4392   -2794.7372    912.76596    11816.735 
    2800    297.01078    196.96261   -3232.0871   -2790.3061    872.57512    11812.493 
    2850    301.51348    197.14768   -3238.2559   -2789.7774    837.66595    11808.387 
    2900    285.68357    196.75173   -3225.0578   -2800.1251    1218.7737    11804.435 
    2950    296.87431    197.05047   -3235.0157   -2793.4377    895.44792    11800.774 
    3000    306.91148    197.33972   -3244.6573   -2788.1497    624.97504     11797.28 
    3050    293.24505    196.93402   -3231.1341   -2794.9543    1033.9646    11793.828 
    3100    286.51481    196.69029   -3223.0096   -2796.8405    1271.0107    11790.611 
    3150    310.30983    197.33636   -3244.5453    -2782.983    731.57628      11787.7 
    3200    310.50762    197.41477   -3247.1591   -2785.3025     755.6466    11784.878 
    3250    286.24262    196.66586   -3222.1953   -2796.4311     1397.575    11782.181 
    3300    296.61374    196.98154   -3232.7181   -2791.5277    1160.3646    11779.852 
    3350    303.97004    197.26812   -3242.2706   -2790.1382    947.50233    11777.815 
    3400     290.5855    196.74582   -3224.8608   -2792.6369    1379.4275    11775.993 
    3450    297.67153     196.9722   -3232.4067   -2789.6428     1231.304    11774.544 
    3500    290.91394    196.87145   -3229.0484    -2796.336    1482.3447    11773.445 
    3550    288.76268    196.79438   -3226.4792   -2796.9666    1575.8293    11772.793 
    3600    296.00449    196.97518   -3232.5061   -2792.2219    1364.3802    11772.649 
    3650    300.64494    197.12296    -3237.432   -2790.2454    1228.4361    11772.916 
    3700    315.70514    197.55349   -3251.7829   -2782.1954    815.37197    11773.479 
    3750    314.06749    197.53539   -3251.1796    -2784.028    827.47597    11774.164 
    3800    278.38288    196.56064   -3218.6881   -2804.6146    1714.2029    11775.003 
    3850    299.63333      197.174   -3239.1333   -2793.4515    1086.2262    11776.327 
    3900    305.58643    197.20814   -3240.2713   -2785.7347    846.79628     11777.96 
    3950    301.02473    197.16358   -3238.7859   -2791.0345    894.20795     11779.72 
    4000    295.09645    197.04014   -3234.6715   -2795.7378    1035.2379     11781.64 
    4050    295.82038    196.97336   -3232.4452   -2792.4349    1108.9625     11783.79 
    4100    297.60203    197.07121   -3235.7071   -2793.0466    1032.3361    11786.211 
    4150    305.28614    197.25871   -3241.9569   -2787.8669    813.61223    11788.856 
    4200     298.7255    197.03302   -3234.4339   -2790.1023    997.42055    11791.631 
    4250    301.97714    197.11489   -3237.1629   -2787.9948    857.55548    11794.608 
    4300    297.03002    196.93284   -3231.0947    -2789.285    956.16764    11797.753 
    4350    299.16098    196.96596   -3232.1985   -2787.2193    889.63255    11801.073 
    4400    287.91613    196.70188    -3223.396   -2795.1426    1086.8984    11804.581 
    4450    294.67753    196.88484   -3229.4947   -2791.1842    882.34602    11808.337 
    4500    292.69023    196.82998   -3227.6661   -2792.3115    885.03633    11812.281 
    4550    300.05349    197.06746    -3235.582   -2789.2752    693.14196    11816.366 
    4600    301.70829    197.03513   -3234.5045   -2785.7363    679.49196     11820.53 
    4650    296.73261    196.82404    -3227.468   -2786.1007    717.80884    11824.752 
    4700     292.2577    196.72264   -3224.0882    -2789.377    781.62658     11829.05 
    4750     289.5618     196.6404   -3221.3467   -2790.6455    863.56657    11833.462 
    4800    297.89703    196.88383   -3229.4611   -2786.3619    600.68168    11838.006 
    4850    290.38664    196.63432    -3221.144   -2789.2159    745.41304    11842.606 
    4900    294.75964    196.73539   -3224.5131   -2786.0805    567.35234     11847.27 
    4950    298.94525    196.84126    -3228.042   -2783.3835    339.39769    11851.928 
    5000    284.03711    196.48276    -3216.092   -2793.6083     609.1795     11856.52 
    5050    289.39044    201.61545   -3220.5151   -2790.0687    446.39493    11861.126 
    5100    294.44805    201.66616   -3222.2054   -2784.2363    310.09425    11865.703 
    5150    294.74505    201.61068   -3220.3559    -2781.945    393.15643    11870.178 
    5200    293.24367    201.45333    -3215.111   -2778.9333    416.35541    11874.559 
    5250    291.93325    201.45748   -3215.2492   -2781.0206    305.83673    11878.876 
    5300    285.09939    201.22317    -3207.439   -2783.3752    509.47522    11883.095 
    5350    275.88797    200.92004   -3197.3347   -2786.9723     759.5186    11887.312 
    5400    297.45324    201.50896   -3216.9652    -2774.526    164.24378    11891.593 
    5450    303.73818    201.66803   -3222.2678   -2770.4803   -42.970737    11895.716 
    5500    293.25811    201.39748   -3213.2492     -2777.05    232.89676    11899.558 
    5550    277.55494    200.86576   -3195.5255   -2782.6835    701.54505    11903.255 
    5600    282.38202    201.00332   -3200.1105   -2780.0887    576.64081    11907.018 
    5650    303.79789    201.53714   -3217.9048   -2766.0284   -30.865087    11910.784 
    5700    295.82176    201.27353   -3209.1176   -2769.1052    128.20152    11914.307 
    5750    298.45144    201.23305   -3207.7684   -2763.8445    121.29673    11917.583 
    5800    297.73766    201.12348   -3204.1161   -2761.2539    215.53588    11920.648 
    5850    302.39186    201.32391   -3210.7969    -2761.012    169.55636    11923.541 
    5900    317.23413     201.7493   -3224.9766   -2753.1149   -189.24184    11926.204 
    5950    296.10544     201.0776   -3202.5868   -2762.1524    387.60047    11928.521 
    6000    297.15731    201.06658   -3202.2192   -2760.2203    399.74106    11930.706 
    6050    289.21485    200.79668   -3193.2226   -2763.0374    591.95372    11932.847 
    6100    299.50126     201.0125   -3200.4168   -2754.9313    325.92008    11934.979 
    6150    297.80141    200.93227   -3197.7422   -2754.7851    331.76508    11937.031 
    6200    312.45841    201.24706   -3208.2353   -2743.4771    -20.16619    11938.949 
    6250    315.39014    201.23141   -3207.7136   -2738.5946   -49.210514    11940.553 
    6300    304.12389    200.91914   -3197.3045   -2744.9433    253.18006    11941.842 
    6350    290.20062    200.55689   -3185.2296   -2753.5781    555.30958    11942.986 
    6400    313.60681    201.16449    -3205.483   -2739.0166   -24.486123    11944.074 
    6450    301.08513    200.76134   -3192.0447   -2744.2034    303.07425      11944.9 
    6500    296.61921    200.54331   -3184.7769   -2743.5783    556.64378    11945.581 
    6550    287.01761    200.27262    -3175.754   -2748.8371    910.96941    11946.285 
    6600    307.08848    200.85936   -3195.3119    -2738.541    359.01987    11947.127 
    6650    318.64895    201.28933   -3209.6444   -2735.6783   -14.379879    11947.871 
    6700    308.91397    200.97561   -3199.1869   -2739.7007    230.08272    11948.343 
    6750    295.64569    200.57167   -3185.7224   -2745.9718    546.10383    11948.635 
    6800    306.43699    200.89068   -3196.3562   -2740.5544    239.21144    11948.892 
    6850    296.34926    200.61067   -3187.0222   -2746.2252    474.23383    11949.025 
    6900    304.23936    200.82473   -3194.1577   -2741.6247    312.38013    11949.075 
    6950    315.30022    201.15451   -3205.1504   -2736.1652   -9.2233165    11948.999 
    7000    317.81359    201.17606   -3205.8686    -2733.145   -26.828723    11948.623 
    7050    295.05493    200.53154   -3184.3846   -2745.5128     602.9007    11947.955 
    7100     293.3655    200.46477   -3182.1589      -2745.8    619.59602     11947.28 
    7150    312.88976    201.13389   -3204.4629   -2739.0631    58.669358    11946.597 
    7200     285.2461    200.32037   -3177.3455   -2753.0636    774.88403    11945.729 
    7250    315.20433    201.08739   -3202.9131   -2734.0706     40.46044    11944.885 
    7300    314.51012    201.00056   -3200.0186   -2732.2086    -7.441268    11943.809 
    7350    320.93987    201.20824   -3206.9412   -2729.5675   -147.54284    11942.395 
    7400    312.57409     200.9845   -3199.4833    -2734.553    121.98589    11940.615 
    7450    288.25667    200.35626   -3178.5421   -2749.7822    699.13228    11938.625 
    7500    320.46796    201.24217   -3208.0723   -2731.4005   -79.242521    11936.623 
    7550    309.73394    200.94225   -3198.0751   -2737.3693    251.95387    11934.344 
    7600    311.87862    201.03695   -3201.2318    -2737.336    255.15037    11931.856 
    7650    285.15149     200.3133   -3177.1099   -2752.9687    1043.2584    11929.235 
    7700    295.03428    200.48182   -3182.7273   -2743.8862    848.62751    11926.819 
    7750    317.58768    201.22342   -3207.4475   -2735.0599    116.57584    11924.532 
    7800    309.63238    200.98526   -3199.5088   -2738.9541    373.53785    11922.044 
    7850    293.35078    200.54222   -3184.7407   -2748.4037     782.9864    11919.471 
    7900    316.99133    201.18946   -3206.3155   -2734.8149    199.58272    11916.942 
    7950    293.57303    200.57799   -3185.9331   -2749.2654    832.02168    11914.286 
    8000    309.00591    201.08373   -3202.7909    -2743.168    381.93904    11911.685 
    8050    317.74905    196.36573    -3212.191   -2739.5634    114.20547    11908.985 
    8100    316.89339    196.34297   -3211.4323   -2740.0774    254.25588    11906.037 
    8150    311.09571    196.23307    -3207.769   -2745.0377    524.17696    11902.901 
    8200    307.98638    196.14427   -3204.8091   -2746.7027    620.65565    11899.694 
    8250    298.90538     195.9287   -3197.6234   -2753.0243    786.23244    11896.502 
    8300     315.8352    196.46976   -3215.6587   -2745.8777    281.88826    11893.361 
    8350    311.66543    196.38174   -3212.7248   -2749.1461    414.05655    11890.072 
    8400    307.72131    196.26585   -3208.8617   -2751.1495    571.30918    11886.677 
    8450    309.92472    196.35517   -3211.8392   -2750.8496     504.5407    11883.235 
    8500    299.40579    196.06162   -3202.0541   -2756.7107    752.87395    11879.751 
    8550     303.9241    196.24175   -3208.0584   -2755.9943    650.26128    11876.334 
    8600    312.46851    196.54987   -3218.3291   -2753.5559    533.05429    11872.931 
    8650    309.36399    196.45208   -3215.0692   -2754.9137    675.49772    11869.492 
    8700    295.77288    196.06828    -3202.276   -2762.3363    981.02882    11866.087 
    8750    303.82035    196.30276   -3210.0921   -2758.1823     798.6489    11862.837 
    8800    299.23121    196.22053   -3207.3509   -2762.2672    869.23611    11859.706 
    8850    317.76711    196.82254    -3227.418   -2754.7635    388.95868    11856.667 
    8900    309.28848    196.58668   -3219.5561   -2759.5129    628.83195    11853.556 
    8950    316.84219    196.82512   -3227.5041   -2756.2254    467.96314    11850.392 
    9000    279.33956    195.78127   -3192.7091   -2777.2127    1366.6962    11847.213 
    9050    294.47387    196.28054   -3209.3513   -2771.3437     1031.489    11844.357 
    9100    296.14765    196.39921   -3213.3069   -2772.8097    986.52357    11841.754 
    9150    310.37223    196.84515   -3228.1715   -2766.5164    597.32477    11839.311 
    9200    319.27312    197.18147   -3239.3823   -2764.4878    312.99228    11836.863 
    9250    315.46565     197.1945   -3239.8167   -2770.5854    424.12364    11834.269 
    9300    294.89923    196.65258   -3221.7527   -2783.1124    953.79433      11831.6 
    9350    294.67221    196.59688   -3219.8959   -2781.5933    1026.9068    11829.069 
    9400    299.19325    196.71324   -3223.7748   -2778.7475    950.51588    11826.752 
    9450    288.80885    196.49058   -3216.3526   -2786.7713    1215.5592    11824.643 
    9500    299.43588    196.81242   -3227.0806   -2781.6924    930.85177    11822.825 
    9550    303.67018    196.90409   -3230.1365   -2778.4501    753.26592    11821.186 
    9600    303.75587     196.9364   -3231.2134   -2779.3996    712.48438    11819.618 
    9650    303.32774    196.88572   -3229.5239   -2778.3469    706.43979    11818.118 
    9700    299.71492    196.89113   -3229.7042    -2783.901    796.74766    11816.667 
    9750    299.06998    196.79604   -3226.5348   -2781.6909     823.6186    11815.319 
    9800    304.66986    197.01769    -3233.923   -2780.7497    627.36057     11814.07 
    9850    309.78252    197.22504   -3240.8346   -2780.0566    452.25254    11812.828 
    9900    293.25689    196.73901   -3224.6336   -2788.4362     940.4917    11811.541 
    9950    282.92617    196.38028   -3212.6761   -2791.8449    1324.6962    11810.431 
   10000    294.95384    196.79111   -3226.3703   -2787.6488    952.08096    11809.675 
   10050     282.1894    196.43176    -3214.392   -2794.6566     1249.997    11809.145 
   10100    302.17934    197.10767   -3236.9223   -2787.4534    660.49019    11808.903 
   10150    298.41699    196.92969   -3230.9895   -2787.1169    734.79989    11808.752 
   10200    296.30905    196.98912   -3232.9706   -2792.2334    819.94529     11808.66 
   10250    295.53038    196.88544   -3229.5148   -2789.9358    835.42955    11808.678 
   10300    288.88738    196.77859   -3225.9531    -2796.255    978.65343    11808.832 
   10350    294.63047    196.90679   -3230.2262   -2791.9857    943.21601     11809.18 
   10400    298.53714    196.99985   -3233.3284    -2789.277    820.34027     11809.73 
   10450    301.38263     197.0458   -3234.8599   -2786.5761    684.87048      11810.4 
   10500    297.67039    197.00618   -3233.5392   -2790.7771    732.20541    11811.123 
   10550    310.25316    197.29819   -3243.2731   -2781.7951    428.37699    11811.901 
   10600    288.77136    196.67523   -3222.5075    -2792.982    1031.6027    11812.656 
   10650    289.37023    196.61129   -3220.3764   -2789.9602    1142.2075    11813.612 
   10700    303.45953     196.9568   -3231.8935   -2780.5204    853.15713     11814.84 
   10750    298.03314    196.78217   -3226.0723   -2782.7706    972.85276     11816.24 
   10800    302.50051    196.96068   -3232.0225   -2782.0759    736.51445    11817.815 
   10850    303.58844    197.07964   -3235.9879   -2784.4231    573.45764    11819.481 
   10900    304.35033    197.19358    -3239.786   -2787.0879    495.66492    11821.137 
   10950    292.17499    196.88131   -3229.3769   -2794.7887    740.07895     11822.77 
   11000    289.97997    196.75821   -3225.2738   -2793.9505    719.78051    11824.481 
   11050    302.51238    197.00213   -3233.4044   -2783.4401    386.18694    11826.259 
   11100    295.10124    196.80769    -3226.923   -2787.9823    574.01679     11827.98 
   11150     291.4053    196.63087   -3221.0291   -2787.5858    638.26416    11829.704 
   11200    295.69749    196.80908   -3226.9695   -2787.1419    429.26325    11831.451 
   11250    299.03991    196.96271   -3232.0903   -2787.2911    357.39631    11833.125 
   11300    288.77343     196.7256   -3224.1868   -2794.6582    638.12758     11834.72 
   11350    298.33998    196.96556   -3232.1853   -2788.4272    460.63106    11836.321 
   11400    286.15005     196.5403     -3218.01   -2792.3835    824.75831    11837.917 
   11450    303.19773    197.01674   -3233.8913   -2782.9077    341.33393    11839.594 
   11500    295.94887    196.78965   -3226.3216   -2786.1201    537.38665    11841.202 
   11550    311.09893    197.20683   -3240.2276   -2777.4915      183.669    11842.745 
   11600    293.83754     196.7978   -3226.5932   -2789.5321    534.37497    11844.121 
   11650    292.95047    196.72246   -3224.0819   -2788.3403    559.48746    11845.474 
   11700    287.78405    196.53663   -3217.8876   -2789.8306    734.12899    11846.842 
   11750    292.86001    196.68871    -3222.957     -2787.35    516.08999    11848.268 
   11800    282.48718    196.36773   -3212.2577   -2792.0794    750.01977    11849.701 
   11850    284.89193    196.34757   -3211.5855   -2787.8304    762.19351    11851.217 
   11900    291.34245    196.54944   -3218.3148    -2784.965    599.93566    11852.842 
   11950    297.78522    196.76958   -3225.6526   -2782.7196    418.22401    11854.492 
   12000     297.9059    196.73661   -3224.5536   -2781.4411    375.93379    11856.066 
   12050    291.97929    196.66889   -3222.2964   -2787.9993    419.31881    11857.536 
   12100    291.14181    196.61069   -3220.3564   -2787.3051    399.87992    11858.948 
   12150    308.66316    197.05261   -3235.0869   -2775.9738    12.554185    11860.251 
   12200    300.64985    196.74651   -3224.8835   -2777.6897     320.2824    11861.298 
   12250    294.94555    196.62341   -3220.7804   -2782.0712    485.08735    11862.194 
   12300    283.16641    196.28678   -3209.5593   -2788.3707     825.9584    11863.075 
   12350    298.37807    196.73267   -3224.4223   -2780.6075    397.18587    11864.054 
   12400    313.83791    197.05763   -3235.2542   -2768.4441    47.706258    11864.934 
   12450    281.80714    196.16458   -3205.4859   -2786.3192    931.69499    11865.613 
   12500    308.79607     196.9519   -3231.7302   -2772.4194    261.03585    11866.391 
   12550    301.15275    196.72068   -3224.0226   -2776.0807    435.15199    11867.062 
   12600    297.53769    196.57254   -3219.0846   -2776.5199    499.43787    11867.655 
   12650    308.86603     196.8951   -3229.8365   -2770.4217    141.78514    11868.194 
   12700    316.63808    197.09357   -3236.4523   -2765.4771     38.45216    11868.497 
   12750     289.4684    196.18094   -3206.0314   -2775.4691    900.45367    11868.555 
   12800    294.47717    196.29165   -3209.7215    -2771.709    745.96106    11868.729 
   12850     308.7088    196.70741   -3223.5803   -2764.3994    247.67562    11868.981 
   12900    307.23023     196.6355   -3221.1833   -2764.2016    367.68252    11869.059 
   12950    294.00456    196.17386   -3205.7954   -2768.4858    829.64335    11869.024 
   13000    297.81985    196.24761   -3208.2538   -2765.2693    734.82304    11869.078 
   13050    297.28775    196.12133   -3204.0444   -2761.8514    766.32233    11869.232 
   13100    323.94674     196.9478   -3231.5932    -2749.747    180.32289    11869.444 
   13150    318.36885     196.7907   -3226.3568   -2752.8073    368.15106    11869.477 
   13200    297.90703    196.18582   -3206.1941     -2763.08     915.6138    11869.393 
   13250    314.97141    196.59343    -3219.781   -2751.2849    594.99653    11869.416 
   13300    311.39102    196.36075   -3212.0248   -2748.8543    721.86413    11869.478 
   13350    312.51897    196.39896   -3213.2988   -2748.4505    713.30059    11869.575 
   13400    299.15819    196.01525   -3200.5082    -2755.533    1089.8344    11869.746 
   13450    319.21552    196.52976   -3217.6587   -2742.8498    647.63313    11870.122 
   13500    314.72345    196.36548   -3212.1827   -2744.0554    769.73707    11870.563 
   13550    317.83695    196.37999   -3212.6665   -2739.9081    688.62424    11871.077 
   13600    317.67196    196.32227   -3210.7422   -2738.2292    752.11122    11871.629 
   13650    304.26766    195.90811   -3196.9369   -2744.3618    1209.0659    11872.281 
   13700    314.93885    196.13201   -3204.4003   -2735.9526    988.98022    11873.215 
   13750    313.20445    196.06036    -3202.012   -2736.1441    1014.9561    11874.374 
   13800    321.06294    196.21328   -3207.1092   -2729.5524     825.2438    11875.731 
   13850    323.47236    196.26277   -3208.7591   -2727.6185    786.04277    11877.207 
   13900    325.08395    196.25527   -3208.5089   -2724.9712     799.7298    11878.778 
   13950    313.57903    195.87583    -3195.861    -2729.436    1034.6725    11880.468 
   14000    306.66713    195.58946   -3186.3154   -2730.1713    1216.2815    11882.375 
   14050    315.04526    195.76425   -3192.1416   -2723.5357    1031.2492    11884.594 
   14100    323.67291    196.07974    -3202.658    -2721.219    776.84919    11887.048 
   14150    315.07063     195.7969     -3193.23   -2724.5863    1068.2193    11889.629 
   14200    325.54657    196.03636    -3201.212   -2716.9862    817.13431    11892.424 
   14250    333.46437     196.3093   -3210.3099   -2714.3069    522.48277    11895.335 
   14300    308.43719    195.55905   -3185.3018   -2726.5249    1132.9112    11898.264 
   14350    325.12206    195.98316   -3199.4387   -2715.8443    782.60188    11901.408 
   14400    329.58517    196.02094   -3200.6979   -2710.4649    758.67634    11904.693 
   14450    310.77904    195.45183   -3181.7278   -2719.4675    1292.2525     11908.12 
   14500    320.16817    195.76463   -3192.1543   -2715.9284    1000.0822    11911.888 
   14550    342.51385    196.34496   -3211.4986   -2702.0352    421.54002    11915.868 
   14600    334.09175    196.08774   -3202.9246   -2705.9884    546.84383    11919.785 
   14650    320.07944    195.66588   -3188.8625   -2712.7686     834.3449    11923.689 
   14700    326.68047    195.87902   -3195.9673   -2710.0549    629.78195    11927.724 
   14750    318.05912     195.6161   -3187.2034   -2714.1145    875.24457    11931.839 
   14800    317.37681    195.54799   -3184.9331   -2712.8591    913.11131    11936.116 
   14850    313.68048     195.4265   -3180.8834   -2714.3075    954.36902    11940.587 
   14900    324.43175     195.7635   -3192.1166    -2709.549    548.16202     11945.25 
   14950    315.56061    195.50576   -3183.5252   -2714.1527    608.30597     11949.96 
   15000    308.80525    195.39243   -3179.7477   -2720.4233     639.0258    11954.706 
   15050    310.96528    200.42117   -3180.7058   -2718.1685    514.24191    11959.534 
   15100     324.9786    200.80061   -3193.3537   -2709.9727    171.37026    11964.358 
   15150    317.22505    200.56938    -3185.646   -2713.7978     278.3202    11969.025 
   15200     308.0412    200.45559   -3181.8531   -2723.6652    293.23531    11973.574 
   15250    299.79201    200.18922   -3172.9739    -2727.056     479.0522    11978.049 
   15300    312.86872    200.59149    -3186.383   -2721.0145    157.43406    11982.495 
   15350    314.31183    200.64622   -3188.2074   -2720.6924    86.008001    11986.788 
   15400    318.04357    200.79262   -3193.0874   -2720.0217   -79.477251    11990.846 
   15450    294.00012    200.16155   -3172.0516   -2734.7487    397.96968    11994.647 
   15500    299.98262     200.4457   -3181.5234   -2735.3219    85.003937    11998.362 
   15550    305.01002    200.60569   -3186.8564   -2733.1771    -178.3339     12001.87 
   15600    292.84717    200.40626   -3180.2088   -2744.6208   -57.653171    12005.044 
   15650    307.53089    200.85652   -3195.2172   -2737.7883   -551.78701    12007.883 
   15700    300.94858    200.79422   -3193.1406   -2745.5024   -532.93138    12010.195 
   15750    296.51608     200.7054   -3190.1801   -2749.1349   -466.38412    12011.952 
   15800    308.55209    201.02424   -3200.8079     -2741.86   -754.22905    12013.152 
   15850    294.83232     200.6417   -3188.0565   -2749.5158   -439.73864    12013.701 
   15900    279.76149    200.32715   -3177.5715   -2761.4475   -186.61617    12013.729 
   15950    297.04104     200.8189   -3193.9635   -2752.1374   -645.85675     12013.32 
   16000    304.72407    201.05569   -3201.8564   -2748.6024    -777.1764    12012.277 
   16050    299.57241    201.02874    -3200.958   -2755.3668   -742.12982    12010.523 
   16100    282.00584    200.54886   -3184.9618   -2765.4995    -374.4023     12008.08 
   16150    295.22328    201.02682    -3200.894   -2761.7718   -667.42685    12005.077 
   16200     299.3109    201.12072   -3204.0241   -2758.8218   -694.99484     12001.44 
   16250    290.49906    200.83201   -3194.4003    -2762.305   -456.44136    11997.096 
   16300    286.18223    200.82295   -3194.0983   -2768.4239   -448.95879    11992.164 
   16350    296.84199    201.15037   -3205.0122   -2763.4822   -726.16919    11986.646 
   16400    288.68549    200.93695   -3197.8982   -2768.5004   -370.63401    11980.427 
   16450    286.17066    200.88942   -3196.3139   -2770.6568   -177.10833    11973.646 
   16500    284.95661    200.80674    -3193.558   -2769.7066   -45.128625     11966.41 
   16550    288.30471    200.93295    -3197.765   -2768.9336   -93.637866    11958.778 
   16600    291.08765    201.08426   -3202.8087   -2769.8379    -149.0894    11950.729 
   16650     296.3539    201.20679    -3206.893   -2766.0891   -228.11765    11942.223 
   16700    283.91171    200.94399   -3198.1329   -2775.8358    137.86545    11933.239 
   16750    288.30732    201.06724   -3202.2414   -2773.4062    160.95156    11923.928 
   16800    301.10893    201.48078    -3216.026   -2768.1493   -71.037795    11914.312 
   16850    298.46592    201.39295   -3213.0983   -2769.1529    77.891917    11904.298 
   16900     304.0482    201.51965   -3217.3217   -2765.0731    76.825044    11893.913 
   16950    296.12489    201.33581   -3211.1938   -2770.7305    493.91173    11883.201 
   17000    294.05142    201.23809   -3207.9362    -2770.557     696.4772    11872.344 
   17050    300.11637    206.51857   -3217.2858   -2770.8855    560.64477    11861.439 
   17100    294.71637    206.28409   -3209.4695   -2771.1013    889.43621     11850.48 
   17150    299.13644    206.47209   -3215.7364   -2770.7937    874.21209    11839.594 
   17200    310.64495    206.89537   -3229.8456   -2767.7848    656.51078    11828.759 
   17250    305.04458    206.72247   -3224.0824   -2770.3517    944.60948    11817.909 
   17300    296.51261    206.48651   -3216.2169   -2775.1769    1422.9153    11807.175 
   17350    291.66295    206.38407   -3212.8024   -2778.9758    1682.4505     11796.81 
   17400    296.93617    206.66001   -3222.0005   -2780.3304    1548.9293    11786.918 
   17450    287.44205    206.27096    -3209.032   -2781.4837    2024.1158    11777.501 
   17500    303.78379    206.70546   -3223.5154     -2771.66    1831.8581    11768.746 
   17550    299.81439    206.66328   -3222.1092   -2776.1581    1997.3471    11760.585 
   17600    301.66465    206.66583   -3222.1942   -2773.4909    2015.6196    11753.073 
   17650    309.22921    206.95986   -3231.9955   -2772.0404    1798.3918     11746.24 
   17700    293.71134     206.4779     -3215.93   -2779.0567    2275.5735    11740.034 
   17750    297.85825    206.61552   -3220.5173   -2777.4757     2227.703    11734.633 
   17800    310.39475    207.04409   -3234.8029   -2773.1142     1895.065    11730.025 
   17850    310.63631    207.04948   -3234.9826   -2772.9347    1992.4535    11726.074 
   17900    304.50631    206.77345   -3225.7815   -2772.8515    2202.8914    11722.833 
   17950    314.31259     207.0768   -3235.8932   -2768.3771    1987.8471    11720.372 
   18000    305.11162    206.80914   -3226.9712   -2773.1408    2328.8252    11718.659 
   18050    304.53099    211.81652   -3227.2175   -2774.2507    2289.5308    11717.814 
   18100    296.65516    211.57604   -3219.2012   -2777.9492    2426.0383    11717.867 
   18150    299.13293     211.6149   -3220.4968   -2775.5593    2377.2759    11718.876 
   18200    294.69242    211.51974   -3217.3247    -2778.992    2411.4671    11720.862 
   18250    302.03241    211.78401   -3226.1338   -2776.8835    2099.7499     11723.81 
   18300    297.18803    211.68521   -3222.8402   -2780.7956    2159.1696    11727.611 
   18350    291.73536    211.52477   -3217.4925   -2783.5582    2275.5109    11732.294 
   18400    298.34992    211.78768   -3226.2559    -2782.483    2010.7255    11737.903 
   18450     304.3515    211.99966   -3233.3218    -2780.622    1760.0827    11744.349 
   18500    295.25416    211.63047   -3221.0157   -2781.8475    1899.5319    11751.524 
   18550    296.59324    211.65768   -3221.9226   -2780.7626    1758.6169    11759.451 
   18600    288.89646    211.39246   -3213.0819   -2783.3704    1841.0471     11768.12 
   18650     291.9868     211.5523   -3218.4099   -2784.1017    1606.5877    11777.534 
   18700    289.63939    211.52042   -3217.3475   -2786.5308     1532.641    11787.619 
   18750    290.13111    211.44624   -3214.8748   -2783.3268    1444.7913    11798.354 
   18800    306.69191     212.0018   -3233.3933   -2777.2123    860.63474    11809.641 
   18850    297.26221    211.71923   -3223.9743   -2781.8193    1032.0063    11821.242 
   18900    278.72115    211.04621   -3201.5404   -2786.9638     1470.984    11833.251 
   18950     284.3894    211.23818   -3207.9394   -2784.9317    1101.5005    11845.839 
   19000    282.70264    211.19559   -3206.5195   -2786.0208    1001.6654    11858.887 
   19050    280.17468    211.04868   -3201.6226    -2784.884    972.33885    11872.321 
   19100    283.62793    211.18517   -3206.1723   -2784.2973    665.23074    11886.104 
   19150     277.9041    210.98551   -3199.5169   -2786.1556     541.9981    11900.122 
   19200    294.75497    211.53324   -3217.7748   -2779.3491   -123.48771    11914.254 
   19250    286.58614    211.29372   -3209.7908   -2783.5156   -51.877974    11928.227 
   19300    282.61852    211.06721   -3202.2403   -2781.8666   -59.866403    11942.016 
   19350    276.10875    210.79704   -3193.2347   -2782.5438   -14.680685    11955.633 
   19400    267.49984    210.51376   -3183.7919   -2785.9061    57.787393    11969.103 
   19450    277.45208    210.81317   -3193.7725   -2781.0835   -362.88489    11982.441 
   19500    281.01438    210.82944   -3194.3146    -2776.327   -594.10983    11995.458 
   19550    291.25297    211.13955   -3204.6517   -2771.4349   -992.30973    12007.981 
   19600    274.79814    210.56939   -3185.6464    -2776.905   -555.31627    12019.854 
   19650    274.98424    210.48902   -3182.9674   -2773.9492   -581.57925     12031.23 
   19700    281.88118    210.72559   -3190.8529    -2771.576   -935.37199    12042.111 
   19750    283.54883    210.71811   -3190.6038   -2768.8464   -1079.5235    12052.313 
   19800    281.86947    210.51649   -3183.8829   -2764.6234   -1046.1893    12061.752 
   19850    266.65919    210.00175    -3166.725   -2770.0896   -697.13486    12070.442 
   19900    269.87677    210.02077   -3167.3589   -2765.9376   -829.02236    12078.538 
   19950    289.10926    210.57643   -3185.8809   -2755.8528   -1270.4442    12085.974 
   20000    282.09574    210.24086   -3174.6955   -2755.0994    -984.3241    12092.555 
   20050    288.91926    210.46278   -3182.0928   -2752.3473   -1212.8157    12098.352 
   20100    290.15337    210.46849   -3182.2829   -2750.7018   -1317.3346    12103.275 
   20150    283.21637    210.13331   -3171.1105   -2749.8476   -1060.5403    12107.265 
   20200    267.18831    209.54074   -3151.3579   -2753.9355   -527.11526    12110.465 
   20250    288.91812    210.20795   -3173.5984   -2743.8546   -1080.3855    12113.087 
   20300    284.01838    209.99233   -3166.4109   -2743.9551   -895.93008    12114.931 
   20350    282.67434    209.84673   -3161.5578   -2741.1012   -777.47577    12116.033 
   20400    299.60837    210.33633   -3177.8777   -2732.2329   -1230.4148    12116.427 
   20450    289.79453    209.96289   -3165.4298   -2734.3824   -903.19585     12115.94 
   20500    296.64481    210.14143    -3171.381   -2730.1443   -1011.2209    12114.666 
   20550    276.26103    209.54018   -3151.3393   -2740.4219   -506.83605     12112.63 
   20600    291.68487    209.94676   -3164.8919   -2731.0328   -926.58199    12109.994 
   20650    291.04674    209.95968   -3165.3225   -2732.4125   -884.33083    12106.609 
   20700     305.8724    210.30407   -3176.8024   -2721.8404   -1165.6424    12102.432 
   20750     295.8972    209.99007   -3166.3356    -2726.211   -785.82087    12097.378 
   20800    287.83577    209.76962   -3158.9874   -2730.8535   -404.19351    12091.599 
   20850    298.31945    210.08461    -3169.487   -2725.7595   -594.44899    12085.296 
   20900    297.30819    210.00599   -3166.8663   -2724.6429     -459.282    12078.399 
   20950    294.43444    209.91729   -3163.9096   -2725.9607   -284.29567     12070.96 
   21000    302.44854    210.11776   -3170.5921   -2720.7228   -424.57395    12063.062 
   21050    303.60893    215.16463   -3172.1542   -2720.5589   -403.99939    12054.659 
   21100    292.07219    214.81799   -3160.5998   -2726.1645    7.9332085    12045.787 
   21150    292.53432    214.75134   -3158.3782   -2723.2555    196.14275    12036.629 
   21200    303.66556    215.03299   -3167.7664   -2716.0869    69.329569    12027.285 
   21250    301.72854    215.01166   -3167.0553   -2718.2569     245.6361    12017.706 
   21300    308.21067    215.23643   -3174.5478   -2716.1078    197.79394    12007.959 
   21350    298.71564    214.94701   -3164.9004   -2720.5836    498.82191    11998.059 
   21400    299.56233    214.91292   -3163.7641   -2718.1878    653.05182    11988.131 
   21450    315.00534    215.34195   -3178.0652   -2709.5186    435.37881    11978.247 
   21500    310.71949    215.27203   -3175.7344   -2713.5627    700.38751     11968.33 
   21550    296.37733    214.84934   -3161.6447   -2720.8058    1242.2532    11958.516 
   21600    300.95796      214.956   -3165.2001    -2717.548    1227.4869    11949.044 
   21650    309.81626    215.32249   -3177.4162    -2716.588    1000.4883    11939.937 
   21700     310.2738    215.33119   -3177.7065   -2716.1977     1097.485    11931.095 
   21750    297.31218    214.87145   -3162.3817   -2720.1524    1577.1596    11922.574 
   21800    314.56534    215.35145   -3178.3816   -2710.4895    1169.7543    11914.545 
   21850    307.26945    215.12632   -3170.8773   -2713.8373    1469.3391    11906.901 
   21900    317.64717    215.42501   -3180.8338   -2708.3577    1262.2738    11899.713 
   21950    325.55212    215.75888   -3191.9626   -2707.7285    1120.8685      11892.9 
   22000    309.67542    215.28624   -3176.2079   -2715.5892    1719.2651    11886.425 
   22050     319.2745    210.51418   -3183.8061   -2708.9095    1615.3075     11880.51 
   22100    331.93884    210.80325   -3193.4418   -2699.7079    1338.0665    11875.141 
   22150    317.08572    210.40878   -3180.2927   -2708.6517     1755.442    11870.207 
   22200    321.73598    210.59321   -3186.4404   -2707.8826     1707.757    11865.844 
   22250    308.20376    210.12456   -3170.8187    -2712.389     2128.327     11862.11 
   22300    323.54522    210.62918   -3187.6394   -2706.3904    1652.1427    11859.131 
   22350    313.73284     210.4141   -3180.4699   -2713.8161    1918.1649    11856.769 
   22400    320.95472    210.65635   -3188.5451   -2711.1493    1803.6614    11855.089 
   22450     324.9441    210.78689   -3192.8964   -2709.5667     1675.172    11854.056 
   22500    321.60432    210.65273   -3188.4242   -2710.0621    1726.1097    11853.609 
   22550    304.85424    210.17691   -3172.5635   -2719.1159    2127.7175     11853.81 
   22600    311.14067    210.41559   -3180.5197   -2717.7216    1863.0188    11854.801 
   22650    330.45479     210.9801   -3199.3366   -2707.8102    1305.8047    11856.471 
   22700    326.86697    210.91187   -3197.0625   -2710.8726    1444.9836    11858.573 
   22750    306.88006    210.35244   -3178.4147   -2721.9539    1971.2236    11861.175 
   22800    302.00021    210.31823   -3177.2743   -2728.0718     2002.997    11864.507 
   22850    303.76313    210.45595    -3181.865   -2730.0403      1800.31    11868.617 
   22900    318.45653    210.89803    -3196.601    -2722.921    1278.8374    11873.384 
   22950    305.31675    210.61897   -3187.2991   -2733.1636    1492.6939    11878.596 
   23000    308.65395    210.80859   -3193.6198   -2734.5204    1294.6965    11884.293 
   23050    313.83612     210.8628   -3195.4267   -2728.6193    1078.6309    11890.423 
   23100     308.6426    210.76202   -3192.0673   -2732.9849    1125.7839    11896.867 
   23150    297.09407    210.47209   -3182.4029    -2740.498    1240.2892    11903.641 
   23200    305.92002    210.73861   -3191.2871   -2736.2542    739.41168    11910.782 
   23250    308.90741    210.88357   -3196.1189   -2736.6426    489.32488    11918.081 
   23300    314.95428    211.14363   -3204.7876   -2736.3169    227.61372    11925.379 
   23350    305.61975    210.88468   -3196.1559   -2741.5697    384.20274    11932.568 
   23400    300.65575    210.74548   -3191.5161   -2744.3135    444.57869    11939.689 
   23450    286.12241    210.24011   -3174.6702   -2749.0848     732.6877    11946.826 
   23500    300.06127    210.77214   -3192.4047   -2746.0863     205.7344    11954.049 
   23550    285.41829    210.29592   -3176.5305   -2751.9924    601.73523    11961.198 
   23600    296.55241    210.70613   -3190.2042    -2749.105     169.2729    11968.371 
   23650    291.31911    210.49411   -3183.1372   -2749.8221    145.51675     11975.43 
   23700    282.96759    210.27265   -3175.7551   -2754.8623    209.76204    11982.315 
   23750    290.45047    210.53501   -3184.5004   -2752.4773   -126.05755     11989.05 
   23800    308.40484    211.08016    -3202.672   -2743.9431   -658.03492    11995.462 
   23850    285.08263    210.39015   -3179.6718    -2755.633   -59.853052    12001.339 
   23900     274.1304    210.10619   -3170.2064   -2762.4582     101.7066    12006.918 
   23950    296.45578    210.72897   -3190.9658   -2750.0103   -591.43433    12012.269 
   24000    286.45279    210.47599   -3182.5329   -2756.4561   -323.60898    12017.117 
   24050    273.20959    210.12476   -3170.8253   -2764.4467    36.746516    12021.547 
   24100    293.32595    210.58101   -3186.0337   -2749.7336   -517.35514    12025.707 
   24150    294.28301    210.62116   -3187.3719   -2749.6482   -583.35832    12029.379 
   24200    278.84943    210.23053   -3174.3512   -2759.5838   -231.41592    12032.505 
   24250    290.94087    210.50208   -3183.4025     -2750.65   -576.85359    12035.214 
   24300    291.47904    210.49694   -3183.2315   -2749.6785   -644.83582     12037.39 
   24350    288.01651    210.41308   -3180.4359   -2752.0332   -599.57029    12038.961 
   24400    285.57254    210.36779   -3178.9262   -2754.1587   -526.27529    12039.962 
   24450    280.56088    210.14949   -3171.6495   -2754.3365   -376.12415    12040.444 
   24500    281.58276    210.18475    -3172.825    -2753.992   -366.79984    12040.456 
   24550    277.54132    210.09476   -3169.8252   -2757.0035   -277.38356     12040.04 
   24600    288.28717    210.43624    -3181.208   -2752.4027   -619.86336    12039.198 
   24650    294.88679    210.55985   -3185.3283   -2746.7066    -753.2958    12037.776 
   24700    293.11252    210.49931   -3183.3104   -2747.3278   -636.44264    12035.694 
   24750    284.59822    210.25515   -3175.1718   -2751.8535   -320.26967    12033.013 
   24800     284.9491    210.25495   -3175.1649   -2751.3247   -304.39088    12029.893 
   24850    304.69547    210.79673   -3193.2244   -2740.0129   -785.83838     12026.32 
   24900    300.35209    210.66289    -3188.763    -2742.012   -584.30333     12022.09 
   24950    287.13433    210.23247   -3174.4158   -2747.3252   -146.39375    12017.289 
   25000    292.57075    210.40025   -3180.0084   -2744.8315   -232.02123    12012.112 
   25050     289.9754    205.36141   -3178.7137   -2747.3972   -44.249765    12006.555 
   25100    293.49761    205.48056   -3182.6854     -2746.13   -74.559964    12000.685 
   25150    301.84095    205.68705   -3189.5684   -2740.6029    -128.3306     11994.49 
   25200    299.82334    205.55314   -3185.1046   -2739.1401    40.698861    11987.954 
   25250    291.04173    205.24816   -3174.9386   -2742.0361    303.38429    11981.163 
   25300    309.57172     205.7457   -3191.5232   -2731.0588    16.213006    11974.197 
   25350    303.67905    205.62753   -3187.5844   -2735.8848    268.57067    11966.987 
   25400    296.33999    205.39104   -3179.7015   -2738.9182    604.21073     11959.64 
   25450    314.08172    205.92961   -3197.6536   -2730.4809    300.09051    11952.271 
   25500     309.0106    205.71299   -3190.4331   -2730.8032    561.04394    11944.786 
   25550    304.84849    205.55756   -3185.2519   -2731.8129    727.04771    11937.291 
   25600     307.3703    205.67463   -3189.1543   -2731.9643    727.58809    11929.871 
   25650     298.7008    205.44686    -3181.562   -2737.2672    1015.6946    11922.552 
   25700    310.35912    205.76235   -3192.0784   -2730.4428    796.18939    11915.447 
   25750    309.81324    205.68628   -3189.5426   -2728.7188    928.15758    11908.497 
   25800    311.29109    205.66597   -3188.8657   -2725.8438    1062.4889    11901.732 
   25850    318.55528    205.93545   -3197.8484   -2724.0216    966.29497      11895.2 
   25900    313.88681    205.78745   -3192.9151   -2726.0323    1249.2213     11888.88 
   25950    312.13946    205.78189   -3192.7298    -2728.446    1317.9835    11882.913 
   26000    313.66658    205.81232   -3193.7439   -2727.1887    1321.7535    11877.334 
   26050    302.98157     205.4664   -3182.2134   -2731.5513    1732.5694    11872.166 
   26100     309.1557    205.68807   -3189.6023   -2729.7567    1604.6976    11867.595 
   26150     318.4085    205.90377   -3196.7922   -2723.1837    1395.3624    11863.564 
   26200    321.90815    206.01391   -3200.4635   -2721.6495    1334.9209    11859.958 
   26250    312.76215    205.70828   -3190.2761   -2725.0661    1591.9834    11856.759 
   26300    318.89354     205.8614   -3195.3799     -2721.05    1434.1857    11854.054 
   26350     309.0145    205.64521   -3188.1735   -2728.5379    1660.8154    11851.832 
   26400     316.7422    205.84751   -3194.9169   -2723.7869    1601.6094    11850.162 
   26450    305.74721    205.54243   -3184.7477   -2729.9719    1971.8499    11849.043 
   26500    320.23171    205.92031   -3197.3437   -2721.0233    1635.0912    11848.606 
   26550    321.17877    206.04145   -3201.3818   -2723.6527    1599.3865     11848.74 
   26600    306.28501    205.58215   -3186.0717   -2730.4959    2017.4795    11849.425 
   26650    301.14466     205.4739   -3182.4633   -2734.5335     2097.808    11850.842 
   26700    315.99612    206.04154   -3201.3848   -2731.3645    1582.2657    11853.038 
   26750    309.64405    205.78594   -3192.8645   -2732.2925    1777.5628    11855.788 
   26800    290.77969    205.10166   -3170.0552   -2737.5425    2312.3208    11859.195 
   26850    322.03403    206.16718   -3205.5727   -2726.5715    1288.5311    11863.445 
   26900    300.70787    205.61461   -3187.1535   -2739.8734    1727.4358    11868.156 
   26950    295.79691    205.50174   -3183.3912   -2743.4157    1729.3797    11873.469 
   27000    319.71234    206.23205   -3207.7351   -2732.1872     869.9752     11879.37 
   27050    305.12208    205.78862   -3192.9539   -2739.1079    1058.8342    11885.498 
   27100     303.9098    205.78777   -3192.9256   -2740.8828    1094.5725    11891.881 
   27150    308.15795    205.92315   -3197.4382   -2739.0766    899.67468    11898.552 
   27200    315.63868     206.1551   -3205.1699   -2735.6812    638.05925    11905.416 
   27250    301.44466    205.70506   -3190.1686   -2741.7925    1019.7986    11912.368 
   27300    295.90121    205.64188   -3188.0628   -2747.9321    1003.6514    11919.562 
   27350    291.54025     205.5111   -3183.7032   -2750.0592    927.33681    11927.006 
   27400    280.80298     205.2302   -3174.3399   -2756.6668    1081.5675    11934.694 
   27450    283.55553    205.29094   -3176.3646   -2754.5972    867.97829    11942.675 
   27500    302.75752    205.87515   -3195.8384   -2745.5095    197.77616     11950.83 
   27550    304.90174    205.90471   -3196.8237   -2743.3055  -0.65798559    11958.862 
   27600    303.14827    205.85415   -3195.1383   -2744.2282   -53.952156    11966.616 
   27650    296.83873    205.77014    -3192.338   -2750.8129    3.6430706    11974.072 
   27700    289.16508    205.50499   -3183.4998   -2753.3886    197.40521    11981.275 
   27750    288.98508    205.48631   -3182.8769   -2753.0335    82.704277    11988.307 
   27800     289.4402    205.55095   -3185.0318   -2754.5114   -115.63975    11995.116 
   27850    291.73745    205.65749   -3188.5829   -2754.6455   -274.50228    12001.603 
   27900    294.78606    205.76901   -3192.3004   -2753.8285   -467.94526    12007.673 
   27950    285.03494    205.50281    -3183.427   -2759.4591   -321.27422    12013.256 
   28000    294.76997    205.73971   -3191.3236   -2752.8756   -603.18681    12018.375 
   28050    292.49295    210.62173    -3187.391   -2752.3299   -548.89987    12022.922 
   28100    277.55046    210.22044   -3174.0145   -2761.1792   -177.85136    12026.938 
   28150    268.92402    209.99049   -3166.3496   -2766.3455    4.6623107    12030.609 
   28200    272.54918    210.03289    -3167.763   -2762.3668   -65.632404    12034.028 
   28250    277.09792     210.1206   -3170.6867   -2758.5245   -168.08092    12037.179 
   28300    283.00369      210.323   -3177.4334   -2756.4868   -428.31184    12039.982 
   28350    299.04483     210.8535   -3195.1168   -2750.3103   -902.35704    12042.286 
   28400    279.17331    210.27163   -3175.7211    -2760.472   -345.89637    12043.908 
   28450    266.41646    209.84258   -3161.4193    -2765.145    78.722126    12045.086 
   28500    288.52574    210.50433   -3183.4777   -2754.3175    -555.9206    12046.006 
   28550     286.6204    210.33553    -3177.851   -2751.5249   -567.79259    12046.422 
   28600    295.47908    210.64609   -3188.2031   -2748.7003   -852.54217    12046.254 
   28650    289.51444    210.47378   -3182.4593   -2751.8285   -707.65494    12045.405 
   28700    276.67899    210.07931   -3169.3105   -2757.7714   -259.49829    12043.943 
   28750    291.78826    210.56208   -3185.4027   -2751.3898   -638.66189    12042.036 
   28800    289.78934    210.50941   -3183.6469   -2752.6072    -599.0911     12039.55 
   28850    285.96202    210.30112   -3176.7041   -2751.3573   -397.33419    12036.488 
   28900    300.06754    210.70952   -3190.3172   -2743.9895   -740.29975    12032.919 
   28950    279.14174    210.08092   -3169.3639   -2754.1617   -166.85524     12028.75 
   29000    285.30077    210.36997    -3178.999   -2754.6358   -251.70506    12024.177 
   29050    275.70121     205.1167   -3170.5567    -2760.472    146.45337     12019.25 
   29100    287.33177    205.38321   -3179.4404   -2752.0561   -6.3545256    12014.093 
   29150    298.79409     205.6517     -3188.39   -2743.9564   -236.50041    12008.661 
   29200    290.12342    205.35637   -3178.5456    -2747.009    72.116363    12002.853 
   29250    297.69052    205.51356   -3183.7855   -2740.9934   -47.973527    11996.771 
   29300    292.85368    205.42571   -3180.8571   -2745.2594    116.28569    11990.409 
   29350     293.7083    205.49989   -3183.3297   -2746.4609    162.32617    11983.826 
   29400    302.37207    205.78864   -3192.9546    -2743.199    3.7345756    11977.045 
   29450    295.55221    205.50136   -3183.3787   -2743.7672    372.61422    11970.022 
   29500    310.00643    205.90414   -3196.8048   -2735.6937    98.796033    11962.877 
   29550    306.62119    205.91286   -3197.0954   -2741.0197    170.69924    11955.513 
   29600    303.95365    205.83451   -3194.4836   -2742.3756    356.79121    11947.949 
   29650    314.75776     206.0748   -3202.4933    -2734.315    225.82355    11940.271 
   29700    305.82802    205.78313    -3192.771    -2737.875      569.373    11932.463 
   29750    304.08071    205.68463   -3189.4877   -2737.1907    681.23054    11924.649 
   29800    299.68375    205.60834   -3186.9448    -2741.188    835.56925    11916.904 
   29850    300.30263    205.64135   -3188.0449   -2741.3675    970.04368    11909.324 
   29900    304.97376    205.69183   -3189.7277   -2736.1023    976.88646    11901.977 
   29950    312.49378    205.88957   -3196.3192   -2731.5083    881.39188    11894.837 
   30000    315.62291    205.99041   -3199.6804   -2730.2152    945.14806    11887.873 
   30050     318.2659    211.07233   -3202.4111   -2729.0147    995.14974    11881.114 
   30100    303.14986    210.67039   -3189.0131   -2738.1007    1572.1758    11874.615 
   30150    286.33035    210.12392   -3170.7975   -2744.9028     2222.067    11868.678 
   30200    323.22221    211.24043   -3208.0142   -2727.2457    1291.1084    11863.532 
   30250    308.72305    210.78444   -3192.8146   -2733.6124     1696.026    11858.861 
   30300    298.72476    210.51077   -3183.6923   -2739.3619    1982.1995     11854.79 
   30350    307.01193    210.82233   -3194.0777   -2737.4207    1673.3458    11851.456 
   30400    309.49368     210.9379     -3197.93   -2737.5816    1536.3819    11848.728 
   30450    311.62319    210.87073   -3195.6909    -2732.175    1592.1198    11846.524 
   30500    312.30768    210.89838   -3196.6127   -2732.0787    1646.1986    11844.865 
   30550     306.0943    210.59336   -3186.4453   -2731.1532    1800.4141      11843.8 
   30600    322.25514    211.24529   -3208.1762   -2728.8461    1257.8051    11843.319 
   30650    295.18663    210.46115   -3182.0384   -2742.9706    1921.6252    11843.281 
   30700    306.79388    210.83086   -3194.3619   -2738.0292    1670.3575    11843.918 
   30750    314.08627    211.05546   -3201.8486   -2734.6691    1502.4666    11845.162 
   30800    307.63201    210.85141   -3195.0472   -2737.4679    1691.1879    11846.934 
   30850    321.82806    211.35361   -3211.7869    -2733.092    1254.7294     11849.26 
   30900    292.56753    210.49887   -3183.2956   -2748.1236    2010.3038    11852.037 
   30950    301.58075    210.76177   -3192.0591   -2743.4806    1708.0306    11855.533 
   31000    298.79222    210.62017    -3187.339   -2742.9082    1653.4501    11859.675 
   31050    325.77296    211.54504   -3218.1681   -2733.6056    851.25904    11864.331 
   31100    315.30309    211.17918   -3205.9727   -2736.9832    1093.1594    11869.229 
   31150    310.50539    211.03865   -3201.2884   -2739.4351    1082.8055    11874.388 
   31200    290.48218    210.48549   -3182.8497   -2750.7795    1442.3226    11879.866 
   31250    295.33364    210.60482   -3186.8273   -2747.5408    1187.6201    11885.804 
   31300    301.18241    210.90948   -3196.9827   -2748.9967    888.98059    11892.094 
   31350     285.9545    210.49072   -3183.0239   -2757.6883    1239.7551    11898.626 
   31400    293.88021     210.7408     -3191.36   -2754.2355    968.36623    11905.527 
   31450    300.54774    210.92375   -3197.4582   -2750.4162    648.73384    11912.677 
   31500    300.06304    210.90244   -3196.7481    -2750.427    579.78391    11919.911 
   31550    304.86446    211.03572   -3201.1905   -2747.7277    372.88281    11927.186 
   31600    299.82547    210.86058   -3195.3528   -2749.3851    342.36297    11934.418 
   31650    305.66494    211.02339   -3200.7798   -2746.1264    143.97827    11941.551 
   31700    295.70973    210.76675    -3192.225   -2752.3792    391.86803    11948.527 
   31750     296.6491    210.83982   -3194.6606   -2753.4175    243.96763    11955.426 
   31800    287.45901    210.52751   -3184.2502   -2756.6767    288.91563     11962.22 
   31850    289.06464    210.72476   -3190.8252   -2760.8635    77.448027    11968.897 
   31900    281.56931    210.47729   -3182.5763   -2763.7633    262.10849    11975.389 
   31950    289.47167    210.76134   -3192.0447   -2761.4776    -9.554499    11981.732 
   32000    294.11182    210.92984   -3197.6613   -2760.1923   -250.09076    11987.825 
   32050    278.53055    205.48557   -3182.8523   -2768.5592    8.2814357     11993.57 
   32100    285.79211    205.67835   -3189.2782   -2764.1841   -260.31041    11999.029 
   32150    287.83976    205.73717    -3191.239   -2763.0992   -372.64208    12004.096 
   32200    297.84016     206.0779   -3202.5966   -2759.5819   -750.58308    12008.671 
   32250    294.18438    205.98815   -3199.6049    -2762.028   -769.12469    12012.593 
   32300    278.64874     205.4751   -3182.5033   -2768.0344   -392.37322    12015.855 
   32350    281.09855    205.58874   -3186.2913   -2768.1785   -527.23388    12018.616 
   32400    282.66725    205.62984   -3187.6612   -2767.2151   -590.06962    12020.838 
   32450    290.53427     205.8973   -3196.5767    -2764.429   -795.80412    12022.478 
   32500    303.83113    206.32317   -3210.7723   -2758.8466   -1184.4261     12023.41 
   32550    290.47969    205.90548   -3196.8492   -2764.7827   -815.00005    12023.478 
   32600    292.53058    206.04187   -3201.3958   -2766.2787   -856.57774    12022.827 
   32650    286.63046    205.82725   -3194.2416   -2767.9005   -636.11305    12021.484 
   32700    283.95915    205.77727   -3192.5755   -2770.2078   -524.49502    12019.524 
   32750    276.61468    205.51903   -3183.9675   -2772.5242   -271.65864    12017.026 
   32800    285.30336    205.73603    -3191.201   -2766.8339    -478.0826    12014.111 
   32850    287.36889    205.82363    -3194.121   -2766.6815   -503.70349    12010.681 
   32900    273.96059    205.45496   -3181.8321   -2774.3365    -129.8963    12006.746 
   32950    288.05428    205.86847   -3195.6158   -2767.1568   -485.83942    12002.454 
   33000    296.10141     206.1345   -3204.4833   -2764.0549   -653.05043    11997.644 
   33050    292.64178    206.01851    -3200.617   -2765.3346   -515.61867    11992.236 
   33100    289.72957    205.87381   -3195.7937   -2764.8429   -362.60199    11986.286 
   33150    291.51955    205.96898   -3198.9659   -2765.3527   -343.20878    11979.859 
   33200    278.84312    205.53879   -3184.6262   -2769.8682    105.84028    11973.019 
   33250    305.44281    206.34994   -3211.6646   -2757.3416   -506.73877     11965.89 
   33300    293.97481    205.97581   -3199.1936   -2761.9283   -54.580972    11958.289 
   33350    294.15198    205.98248    -3199.416   -2761.8872     191.7638    11950.362 
   33400    293.53051    205.85716   -3195.2386   -2758.6342    309.33012    11942.283 
   33450    301.83971    206.04009   -3201.3365   -2752.3728    192.50168    11934.081 
   33500    301.45145    206.03985   -3201.3283   -2752.9421    333.03567    11925.723 
   33550    308.84064    206.20301    -3206.767     -2747.39    252.88001    11917.253 
   33600    282.35059    205.33481   -3177.8271    -2757.852    1150.3683    11908.702 
   33650    291.91305    205.64478   -3188.1595   -2753.9609    1010.2498    11900.423 
   33700    312.55865    206.25789   -3208.5963    -2743.689    528.22763    11892.402 
   33750    310.05957    206.08935   -3202.9783   -2741.7882    791.94679    11884.432 
   33800    315.29468    206.15486    -3205.162   -2736.1851    876.68731    11876.571 
   33850    300.67015    205.64578   -3188.1927   -2740.9687    1435.6235    11868.924 
   33900    312.68841    205.96985    -3198.995   -2733.8947    1304.7071     11861.71 
   33950    308.16244    205.81705   -3193.9015   -2735.5333    1651.4998    11854.921 
   34000     308.3788    205.77413   -3192.4709   -2733.7808    1763.7991    11848.693 
   34050    337.74203    201.59963   -3219.9877    -2717.622    1002.2547    11843.023 
   34100    313.16197    200.83392    -3194.464   -2728.6593    1761.0946     11837.66 
   34150    318.44651    200.90787   -3196.9291   -2723.2641    1749.9289     11832.86 
   34200    336.45348    201.47435   -3215.8116   -2715.3625    1317.0828    11828.626 
   34250    320.88119    200.99932   -3199.9772   -2722.6908    1816.0217    11824.818 
   34300    323.86438    201.12466   -3204.1555   -2722.4318    1812.2501    11821.596 
   34350    322.32577     200.9778   -3199.2599   -2719.8247    1986.4292        11819 
   34400    322.60851    200.93344   -3197.7813   -2717.9256    1944.4808     11817.11 
   34450    322.34613    200.95989   -3198.6631   -2719.1976    1888.9894    11815.905 
   34500    326.25688    200.99332   -3199.7774    -2714.495    1972.5561    11815.345 
   34550    321.33542      200.838      -3194.6   -2716.6379    2193.9038    11815.492 
   34600     326.3327     201.0737   -3202.4565   -2717.0614    1991.0896     11816.42 
   34650    328.06802    201.13721   -3204.5737   -2716.5974    1941.3866    11818.069 
   34700    325.39661    201.13621   -3204.5403   -2720.5375    1898.8111    11820.396 
   34750    336.50153    201.43341    -3214.447   -2713.9265     1546.845    11823.351 
   34800    312.54731    200.81211   -3193.7369   -2728.8464    2072.2872    11826.833 
   34850    316.36455    200.84489   -3194.8295   -2724.2612    1973.1184    11831.048 
   34900    321.10478    201.04964   -3201.6547   -2724.0357    1778.5646    11835.958 
   34950    325.80976    201.29124   -3209.7079   -2725.0906    1535.6656    11841.463 
   35000    326.68976    201.36976   -3212.3254   -2726.3992     1344.669    11847.457 
   35050    314.13155    195.97759   -3199.2531   -2732.0062    1500.0457    11853.843 
   35100    306.87652    195.82745   -3194.2482   -2737.7926    1532.7798     11860.68 
   35150    314.94018    196.02821   -3200.9402   -2732.4906    1162.8213    11867.968 
   35200     323.4051    196.23336   -3207.7787   -2726.7381    853.24262    11875.537 
   35250    328.71311    196.37577   -3212.5255   -2723.5897    606.77421    11883.216 
   35300    313.82052    196.11153   -3203.7177   -2736.9335     799.5316    11890.904 
   35350     298.5997    195.71117   -3190.3724   -2746.2279    1037.3488    11898.703 
   35400    312.29038    196.09172   -3203.0573    -2738.549    538.09787    11906.691 
   35450    310.29947    195.98662    -3199.554   -2738.0071     503.0841    11914.665 
   35500    310.45137    196.07694   -3202.5646   -2740.7917    321.87804    11922.587 
   35550    316.80944    196.22142   -3207.3806   -2736.1505      88.2308    11930.355 
   35600    301.14174    195.72676   -3190.8919   -2742.9664    398.28843    11937.892 
   35650    308.80248    196.00535   -3200.1784   -2740.8581    107.21275    11945.272 
   35700    294.70124    195.65623   -3188.5409   -2750.1951    379.32779    11952.438 
   35750    327.71808    196.63981   -3221.3269   -2733.8711   -515.44965    11959.417 
   35800    296.09378    195.63984   -3187.9945   -2747.5775    191.74488    11965.888 
   35850    301.83109    195.81039   -3193.6796   -2744.7288   -41.058534     11972.08 
   35900    309.22981     196.1502   -3205.0067   -2745.0508   -409.94247    11977.954 
   35950    311.61051    196.16238   -3205.4125   -2741.9155    -481.0072    11983.292 
   36000    290.99897    195.66583   -3188.8612   -2756.0223   -25.171971    11988.083 
   36050    292.39598    195.72163   -3190.7209    -2755.804   -201.20272    11992.508 
   36100    292.66545    195.73414    -3191.138   -2755.8203   -323.87138    11996.528 
   36150    302.76381    195.96423   -3198.8075   -2748.4693   -637.71061    12000.053 
   36200    291.64347    195.72542   -3190.8474   -2757.0498   -484.22931    12002.958 
   36250    286.74564    195.60671   -3186.8903   -2760.3778   -404.36016    12005.311 
   36300    297.19372    195.90163   -3196.7211    -2754.668   -706.24781    12007.126 
   36350     296.3174    195.92141   -3197.3802   -2756.6305   -641.60762    12008.267 
   36400    297.25464    195.98171   -3199.3904   -2757.2466   -668.44773    12008.756 
   36450     299.0984    195.99688    -3199.896   -2755.0098   -734.14789    12008.592 
   36500    290.17521    195.80032   -3193.3441   -2761.7304   -508.75453    12007.753 
   36550     295.7044    195.96108   -3198.7027   -2758.8648   -597.23577    12006.313 
   36600    308.55074     196.3553   -3211.8432   -2752.8973   -912.19237     12004.23 
   36650    300.69224    196.10323   -3203.4409   -2756.1839    -725.1737    12001.387 
   36700    303.00661    196.21539   -3207.1796   -2756.4803   -780.25072    11997.841 
   36750    293.59951    195.93869   -3197.9563   -2761.2492   -466.52894    11993.607 
   36800    289.10264    195.80386    -3193.462   -2763.4437   -224.98629    11988.813 
   36850    300.81474    196.17935   -3205.9783   -2758.5392   -445.90979    11983.595 
   36900    295.78187    195.99245   -3199.7482   -2759.7951   -308.06774    11977.864 
   36950    301.20198    196.22056   -3207.3519   -2759.3368   -480.11536    11971.637 
   37000    298.97692    196.16258   -3205.4194   -2760.7139   -339.41275    11964.891 
   37050    297.75923    201.12463   -3204.1545   -2761.2602   -142.93776    11957.685 
   37100    301.16241    201.26406    -3208.802   -2760.8457   -149.39234    11950.111 
   37150    293.81453    201.01846   -3200.6155   -2763.5886    152.34023    11942.192 
   37200    289.95368    200.89082   -3196.3608   -2765.0766    404.74258    11934.079 
   37250    299.37257    201.18684   -3206.2278   -2760.9338    228.94938     11925.89 
   37300    295.98223    201.06829   -3202.2764   -2762.0253    381.64603    11917.556 
   37350    302.22259     201.2406   -3208.0199   -2758.4867    316.86657    11909.137 
   37400    308.90327     201.4474   -3214.9133   -2755.4431    261.20105    11900.601 
   37450    293.19676    201.06615   -3202.2049    -2766.097    665.41701    11891.957 
   37500     316.5151    201.75173   -3225.0577   -2754.2655    72.332671    11883.331 
   37550    302.62739    201.32868   -3210.9558   -2760.8205    569.92485    11874.525 
   37600    298.16575    201.17133   -3205.7111   -2762.2121    855.79957    11865.705 
   37650    301.47474    201.35652    -3211.884   -2763.4632    874.97134     11857.04 
   37700    290.55334     201.0364   -3201.2132   -2769.0371    1217.2716    11848.577 
   37750    287.55365     200.9628   -3198.7599   -2771.0456    1384.9392    11840.464 
   37800    298.98402    201.34404   -3211.4681    -2766.752    1187.6121    11832.759 
   37850    307.46305    201.58178   -3219.3928   -2762.0648    1059.4972    11825.409 
   37900    313.67178    201.80127   -3226.7092   -2760.1462    917.61873    11818.336 
   37950    321.76893    202.04499    -3234.833   -2756.2261    785.22207    11811.445 
   38000    306.69051    201.63137   -3221.0455   -2764.8666    1270.2135     11804.71 
   38050    314.24809    196.75032   -3225.0107   -2757.5905     1225.615    11798.289 
   38100    314.98042    196.80307    -3226.769   -2758.2595    1316.6593    11792.204 
   38150    299.51154    196.45846    -3215.282   -2769.7812    1787.3585    11786.516 
   38200    311.03175    196.73897   -3224.6323   -2761.9962    1528.8282    11781.401 
   38250    313.12006      196.874   -3229.1333   -2763.3909    1420.9267    11776.767 
   38300    311.82504       196.85   -3228.3334   -2764.5173    1442.9367    11772.573 
   38350    304.51195    196.69333   -3223.1111   -2770.1726    1637.7185    11768.812 
   38400    305.19056     196.7363   -3224.5433   -2770.5955    1668.3588     11765.57 
   38450    295.83486    196.57173   -3219.0578   -2779.0259    1874.4767    11762.901 
   38500    320.14347    197.30594   -3243.5312    -2767.342    1222.0873    11760.806 
   38550    303.47826    196.82069   -3227.3563   -2775.9554    1603.5787    11759.105 
   38600    311.44731    197.00167   -3233.3891   -2770.1349    1401.8236    11757.868 
   38650     307.4926    196.94477   -3231.4923   -2774.1204     1412.901    11757.033 
   38700    298.04335    196.72475   -3224.1582   -2780.8414    1618.9174    11756.622 
   38750    301.17771    196.94614   -3231.5379   -2783.5589    1508.2836    11756.718 
   38800    294.88713    196.75441    -3225.147   -2786.5247     1707.212    11757.309 
   38850    302.16513    197.09517   -3236.5058   -2787.0581    1432.5283     11758.44 
   38900    305.24044     197.2083   -3240.2765   -2786.2545    1285.1736    11760.001 
   38950    305.76617    197.32238   -3244.0795   -2789.2755    1119.5807    11761.904 
   39000    293.39184    197.00982   -3233.6606   -2797.2625    1282.2186    11764.093 
   39050    303.89682    197.30624   -3243.5412   -2791.5177    916.70592    11766.602 
   39100    302.06155    197.29173   -3243.0578   -2793.7641    976.44702    11769.299 
   39150    292.11546    197.03571   -3234.5237   -2800.0241    1264.0297    11772.208 
   39200    307.04887    197.53114   -3251.0379    -2794.326    775.55615     11775.41 
   39250    287.42961    197.03304   -3234.4345   -2806.9048    1174.7851    11778.759 
   39300     294.5713    197.25613   -3241.8709   -2803.7184    911.98934     11782.37 
   39350    296.80934    197.37959   -3245.9863   -2804.5049    745.16919    11786.146 
   39400     292.8723     197.2829   -3242.7633    -2807.138    784.92828    11790.014 
   39450    292.52548    197.29966    -3243.322   -2808.2125    630.61811    11793.976 
   39500    294.01628    197.35888    -3245.296   -2807.9691    463.53081     11797.97 
   39550    285.46373     197.1127   -3237.0901   -2812.4844    647.24612    11801.919 
   39600    283.82959    197.03383   -3234.4609   -2812.2859    607.23662    11805.906 
   39650    304.52373     197.7296   -3257.6532   -2804.6972    -10.75743    11809.876 
   39700    282.77681    197.05953   -3235.3175   -2814.7084    516.91548    11813.611 
   39750    282.57911    197.07483   -3235.8277   -2815.5127     469.3927    11817.276 
   39800    294.68908    197.42846   -3247.6153   -2809.2876    153.83411    11820.885 
   39850    306.22775    197.76455   -3258.8183   -2803.3278    -191.2757    11824.282 
   39900     272.7367    196.84574   -3228.1913   -2822.5161    621.70957    11827.332 
   39950    269.52894    196.76989   -3225.6631   -2824.7592    653.59111    11830.369 
   40000    297.29915    197.48297   -3249.4322   -2807.2223   -130.29865    11833.442 
   40050     303.8394    197.64743   -3254.9144   -2802.9763   -300.40639    11836.175 
   40100    276.07259    196.88101   -3229.3671     -2818.73    424.40661    11838.514 
   40150    282.94797    197.05748   -3235.2492   -2814.3856    210.33147    11840.736 
   40200    282.09698    197.10369   -3236.7896   -2817.1917    181.97873    11842.798 
   40250    274.17834    196.82228   -3227.4092   -2819.5897    372.00851    11844.687 
   40300    288.62219     197.1854   -3239.5134   -2810.2098    59.079061    11846.443 
   40350    286.31608    197.07154    -3235.718   -2809.8446    117.74773    11847.968 
   40400    292.32309    197.30273   -3243.4244   -2808.6159   -73.900259    11849.236 
   40450    283.35551    197.03097   -3234.3655   -2812.8957    154.54678    11850.204 
   40500    283.68651    197.00274   -3233.4246   -2811.4624    177.93501    11850.952 
   40550     285.1403    197.06481   -3235.4936    -2811.369     174.4578     11851.51 
   40600    296.76919    197.31691   -3243.8972   -2802.4755    -111.6041    11851.844 
   40650    284.21211    196.88732   -3229.5772   -2806.8332    211.35455     11851.86 
   40700    279.98426    196.77229   -3225.7431   -2809.2877    407.22145    11851.676 
   40750    265.12792    196.28217   -3209.4055   -2815.0479    833.74875    11851.449 
   40800    301.71656    197.32042   -3244.0139   -2795.2333   -72.440223    11851.282 
   40850    290.06198     196.9054     -3230.18   -2798.7347    269.24561    11850.857 
   40900    295.81257    197.07954   -3235.9848    -2795.986    134.29244     11850.24 
   40950    286.93474    196.88422   -3229.4741   -2802.6805     337.9395    11849.409 
   41000    281.12326    196.66902   -3222.3007   -2804.1512     515.9674    11848.469 
   41050    292.40017    196.94352   -3231.4507   -2796.5276     298.8798    11847.491 
   41100    299.24069    197.11578   -3237.1927   -2792.0948    226.32078    11846.368 
   41150     289.6428    196.86253   -3228.7511   -2797.9293    441.83993    11845.089 
   41200     287.1103    196.75342   -3225.1141   -2798.0593    566.50064    11843.734 
   41250    293.47022    196.91232   -3230.4108    -2793.896    451.90697    11842.365 
   41300    311.48743    197.24267   -3241.4222   -2778.1082    107.66105    11840.918 
   41350    290.17316    196.61653    -3220.551   -2788.9405    707.11461    11839.279 
   41400    302.37204    197.02442   -3234.1474   -2784.3919     434.5807    11837.646 
   41450    304.82224     197.1201   -3237.3365   -2783.9365      355.437    11835.953 
   41500    303.60485    197.10238   -3236.7462    -2785.157    461.30586    11834.148 
   41550    294.18386    196.76739   -3225.5795   -2788.0033    809.42563    11832.303 
   41600    297.35182    196.88084   -3229.3613    -2787.073    730.27636    11830.543 
   41650    295.46192    196.82734    -3227.578   -2788.1007    775.03323    11828.868 
   41700    295.42814    196.76533   -3225.5109    -2786.084    907.38839    11827.307 
   41750     294.1295     196.5602   -3218.6735   -2781.1781    1108.9306    11825.916 
   41800    303.08104    196.82501   -3227.5002   -2776.6901    943.56987    11824.766 
   41850    307.55077    196.98744   -3232.9145    -2775.456    808.78036    11823.792 
   41900    293.72852    196.64781   -3221.5938   -2784.6949    1112.5659    11822.954 
   41950    289.22222    196.46362    -3215.454   -2785.2579    1161.8294    11822.369 
   42000    303.00705    196.82572    -3227.524    -2776.824    793.96635    11822.061 
   42050    293.42095    201.42199   -3214.0663   -2777.6248    1150.0481    11821.913 
   42100    304.24748    201.70228   -3223.4095   -2770.8644    978.29853    11822.027 
   42150    297.23182     201.4248   -3214.1601   -2772.0503    1155.4472    11822.374 
   42200    304.10219    201.69482   -3223.1605   -2770.8316     902.7043    11822.994 
   42250    311.11073    201.95377   -3231.7922   -2769.0386     700.3545    11823.798 
   42300    294.34355    201.50548   -3216.8494   -2779.0357    1112.7838    11824.692 
   42350    309.91748    201.86255   -3228.7516   -2767.7728    725.59224    11825.827 
   42400    293.59607    201.49224   -3216.4081   -2779.7062    1088.8542      11827.1 
   42450    303.91131    201.72038   -3224.0128   -2771.9677    939.74756    11828.605 
   42500     304.6934    201.72195   -3224.0649   -2770.8566     968.1035    11830.336 
   42550    306.43732    201.79308   -3226.4359   -2770.6336    943.67921    11832.257 
   42600    299.35894    201.60501   -3220.1669   -2774.8931    1073.1302    11834.377 
   42650     304.3029    201.65158   -3221.7195    -2769.092      945.346    11836.756 
   42700    293.23678    201.31358   -3210.4527   -2774.2853    1240.1131    11839.355 
   42750    293.16713    201.34862   -3211.6207   -2775.5568     1168.935    11842.289 
   42800     303.4548    201.48753    -3216.251    -2764.885    844.34808    11845.536 
   42850    303.97537    201.53127   -3217.7091   -2765.5687    800.38204     11848.94 
   42900    303.00798    201.52705   -3217.5682   -2766.8668    808.40956    11852.469 
   42950     301.4213    201.44573   -3214.8578   -2766.5165    837.27136    11856.121 
   43000    292.88353    201.23976    -3207.992     -2772.35     1003.436    11859.942 
   43050    306.54742    201.62279   -3220.7596   -2764.7935    567.84633    11863.968 
   43100    298.81271    201.39271   -3213.0904   -2768.6291    811.09865    11868.028 
   43150    295.53999    201.26578   -3208.8593   -2769.2659    873.32289    11872.223 
   43200    299.36803    201.40529   -3213.5096   -2768.2224    622.85396    11876.583 
   43250    298.46264    201.36345   -3212.1148   -2768.1743    583.63102     11880.98 
   43300     291.8679    201.22616   -3207.5386   -2773.4072    686.52674    11885.394 
   43350    292.36313     201.1939   -3206.4633   -2771.5953     580.4604    11889.875 
   43400    293.46871    201.16234   -3205.4113   -2768.8988    509.12555    11894.381 
   43450    292.23973    201.07224   -3202.4081   -2767.7236    584.23277     11898.87 
   43500    308.52864    201.52464   -3217.4881   -2758.5751    63.074946    11903.353 
   43550    300.90323    201.28811   -3209.6038   -2762.0331     216.9282    11907.603 
   43600    293.98392    201.12209   -3204.0695   -2766.7907    412.70187    11911.661 
   43650    294.29871    201.06104   -3202.0347   -2764.2877    405.12282    11915.666 
   43700    310.98181    201.61477   -3220.4925   -2757.9306   -119.72324    11919.551 
   43750    306.46747    201.47126   -3215.7086   -2759.8614   -39.502707    11923.105 
   43800    286.06954    200.83449    -3194.483   -2768.9762    440.82117    11926.378 
   43850    301.46256    201.22358   -3207.4526   -2759.0498    62.213807    11929.533 
   43900    293.53623    200.95381   -3198.4602   -2761.8473    230.44693    11932.466 
   43950    298.88658    201.04882   -3201.6273   -2757.0561    4.2914088    11935.216 
   44000    298.38172     201.0184   -3200.6133   -2756.7931    9.5314283    11937.693 
[...]
   89400    300.13769    196.18399   -3206.1329   -2759.7008    1125.1572    11856.343 
   89450    314.19119    196.55302   -3218.4341   -2751.0985    836.18813    11856.892 
   89500    307.49754    196.25872   -3208.6239   -2751.2446    985.30238    11857.587 
   89550    313.96706    196.53167   -3217.7225   -2750.7203    704.62058    11858.451 
   89600    318.36751    196.63578   -3221.1926   -2747.6451    631.16624    11859.391 
   89650    301.57834    196.13425   -3204.4751   -2755.9002    1083.9984    11860.385 
   89700    316.10891    196.56415   -3218.8049   -2748.6169    636.21349    11861.582 
   89750    297.86915    196.02683   -3200.8945   -2757.8367    1052.1719    11862.858 
   89800    304.73108    196.28918   -3209.6393   -2756.3749    884.84232    11864.331 
   89850    301.39055    196.16328   -3205.4428   -2757.1472    959.47221    11865.991 
   89900    307.99538     196.3083   -3210.2767   -2752.1569    801.06705    11867.842 
   89950    316.97247    196.67819   -3222.6064   -2751.1339    492.39605    11869.789 
   90000    314.48876     196.6246   -3220.8198   -2753.0416    486.15896    11871.689 
   90050    312.72213    196.57819    -3219.273   -2754.1226    549.28077    11873.531 
   90100    300.65464    196.23957   -3207.9857   -2760.7848    857.68323    11875.379 
   90150    311.02062     196.5019   -3216.7301   -2754.1105    587.10757    11877.328 
   90200    298.13753    196.18016   -3206.0053   -2762.5483    800.65561    11879.311 
   90250    295.33945     196.0938   -3203.1265   -2763.8315    772.64953    11881.387 
   90300    297.51138    196.18243   -3206.0809   -2763.5553    649.03278    11883.569 
   90350    309.43246    196.60299   -3220.0995   -2759.8422    270.24589    11885.798 
   90400    305.67475    196.49971   -3216.6571   -2761.9891    347.70066    11887.883 
   90450    298.64313    196.25722    -3208.574   -2764.3649    535.39043    11889.855 
   90500    299.07599    196.33898   -3211.2993   -2766.4464    481.10851    11891.808 
   90550    298.14758    196.36043   -3212.0143   -2768.5424    403.44482    11893.714 
   90600    299.32254    196.39116   -3213.0386   -2767.8191    292.17372    11895.538 
   90650    311.93941     196.7961   -3226.5365   -2762.5503   -83.098392    11897.203 
   90700    309.58626    196.69718   -3223.2395   -2762.7534   -50.120883     11898.55 
   90750    304.86237    196.64845    -3221.615   -2768.1553     89.38045    11899.555 
   90800    287.54051    196.12383   -3204.1277    -2776.433    548.32845    11900.328 
   90850    288.88837    196.09868   -3203.2894   -2773.5898    511.84217    11901.071 
   90900     307.0379     196.7171   -3223.9035   -2767.2079   -123.29531    11901.733 
   90950    301.20257    196.52029   -3217.3431   -2769.3271   -43.533129    11902.074 
   91000    298.18346    196.50386   -3216.7954   -2773.2701     103.6331    11902.081 
   91050    292.65935    196.35765   -3211.9217   -2776.6131    236.94211    11901.835 
   91100    292.62365    196.38563   -3212.8543   -2777.5988    204.72374    11901.406 
   91150    298.41535    196.58653    -3219.551   -2775.6808   -16.855836    11900.763 
   91200     293.9274    196.50159   -3216.7198   -2779.5251    97.767635     11899.83 
   91250    288.24975    196.25775   -3208.5917   -2779.8421    334.50822    11898.646 
   91300    301.92656    196.74729   -3224.9096   -2775.8168   -18.352283    11897.298 
   91350    299.70516    196.73242    -3224.414   -2778.6253   -2.5140689     11895.66 
   91400    284.35712    196.20689   -3206.8964   -2783.9367    411.36496     11893.72 
   91450    298.52415    196.59686   -3219.8954   -2775.8634    84.001886    11891.644 
   91500    301.21159     196.7061   -3223.5368   -2775.5074   0.21217216    11889.324 
   91550    285.31652    196.15357   -3205.1191   -2780.7324    494.26308    11886.717 
   91600    291.87707    196.38124   -3212.7081   -2778.5631    316.62942    11884.012 
   91650     307.1443    196.85151   -3228.3838   -2771.5299   -82.765086    11881.147 
   91700    292.22559    196.44727    -3214.909   -2780.2456    303.55032    11877.966 
   91750     298.0203    196.58877   -3219.6258   -2776.3431    310.92942    11874.602 
   91800    295.05198     196.5838     -3219.46   -2780.5926    430.01017    11871.102 
   91850    304.79629    196.87993   -3229.3311   -2775.9697    207.79309    11867.482 
   91900    301.91355    196.78741   -3226.2469   -2777.1734    328.90837    11863.671 
   91950    300.57791    196.70892   -3223.6305   -2776.5436    472.03717    11859.702 
   92000    299.91533    196.66194   -3222.0645   -2775.9632    522.12942    11855.641 
   92050     294.9235    201.54766   -3218.2553   -2779.5789    636.06632     11851.53 
   92100     284.3479    201.19751   -3206.5835   -2783.6376    966.20359    11847.469 
   92150      301.026    201.71781   -3223.9271   -2776.1737    587.02848    11843.579 
   92200    296.29699    201.52545    -3217.515   -2776.7957    820.73418    11839.729 
   92250    292.76065    201.36831   -3212.2769   -2776.8176    1093.9825    11836.003 
   92300    300.51424    201.63916   -3221.3052    -2774.313    854.35973    11832.525 
   92350    317.02904    202.11998   -3237.3325   -2765.7758    449.25433    11829.145 
   92400     307.5017     201.8676   -3228.9199   -2771.5344     771.9088    11825.725 
   92450    297.35403    201.66889   -3222.2965   -2780.0049     1033.836    11822.396 
   92500    287.96574    201.49279   -3216.4264   -2788.0992    1281.8853    11819.281 
   92550    279.47011    201.23928   -3207.9759   -2792.2853    1502.5142     11816.53 
   92600    300.40009    201.84141    -3228.047   -2781.2247    896.22053    11814.237 
   92650    303.62342    201.85036   -3228.3454   -2776.7285    861.19837    11812.139 
   92700    297.01066    201.68275   -3222.7585   -2780.9776    1092.8626    11810.188 
   92750    312.54941    202.15265   -3238.4217   -2773.5282    697.07545    11808.472 
   92800    300.63238    201.83888   -3227.9626   -2780.7948     1027.641    11806.836 
   92850    311.52493    202.19544    -3239.848   -2776.4783    774.31228    11805.388 
   92900    292.28138    201.56892    -3218.964   -2784.2176    1346.9094    11804.095 
   92950    283.82609    201.27795    -3209.265   -2787.0953    1629.8036    11803.179 
   93000    299.38151    201.86672   -3228.8906   -2783.5833    1222.6269    11802.781 
   93050    301.42278    196.78805   -3226.2683   -2777.9248    1237.1243    11802.744 
   93100    312.41286    197.10212   -3236.7372   -2772.0468    901.97605    11803.009 
   93150     307.3995    196.89794   -3229.9313   -2772.6978    962.74752    11803.441 
   93200    304.25707    196.86812   -3228.9374   -2776.3781    987.58864    11804.057 
   93250    313.34408    197.07126   -3235.7088   -2769.6332    781.17438    11804.862 
   93300    312.77945    197.04038   -3234.6792   -2769.4435    793.68158     11805.77 
   93350     308.3348    196.94935   -3231.6449   -2773.0202     916.9858     11806.77 
   93400    294.46151    196.57587   -3219.1956   -2781.2064    1268.0203    11807.944 
   93450     297.3998    196.65825   -3221.9416   -2779.5819    1169.6322    11809.457 
   93500    301.55292    196.75224   -3225.0745   -2776.5374     991.7407    11811.287 
   93550    305.91146    196.79707   -3226.5691    -2771.549     828.8125     11813.33 
   93600    293.95707    196.48792   -3216.2641   -2779.0252    1093.2129    11815.519 
   93650    299.94606    196.69933   -3223.3109   -2777.1638     922.9681    11817.948 
   93700    313.85461    197.07182   -3235.7273   -2768.8923    551.07879    11820.546 
   93750    294.44333    196.52548   -3217.5159   -2779.5537    930.04771    11823.178 
   93800     298.0633     196.6217   -3220.7234   -2777.3769    799.33959    11825.973 
   93850     294.2488    196.48022   -3216.0073   -2778.3345    894.36639    11828.909 
   93900    293.51401    196.46019   -3215.3395   -2778.7597     912.7596    11832.005 
   93950    294.81702    196.61711   -3220.5704   -2782.0525    782.29677    11835.291 
   94000    316.47619    197.22339   -3240.7798   -2770.0455    194.39161    11838.669 
   94050    303.30111    196.77179   -3225.7263   -2774.5889    554.80303    11841.894 
   94100     301.0278      196.716   -3223.8667   -2776.1106    652.90539     11845.09 
   94150    301.61917     196.7918   -3226.3933   -2777.7576    648.07314    11848.326 
   94200    302.53474    196.84633    -3228.211   -2778.2135    574.18254    11851.599 
   94250      282.598    196.16924   -3205.6413   -2785.2982    1025.4105    11854.923 
   94300    294.00306    196.59198   -3219.7327   -2782.4255    586.31881    11858.446 
   94350    318.38719    197.22878   -3240.9594   -2767.3826   -131.08453    11861.992 
   94400    307.95643    196.88782    -3229.594   -2771.5321    120.95387    11865.205 
   94450    271.61632    195.87549   -3195.8495   -2791.8408    1008.7834    11868.221 
   94500    292.26841    196.52884   -3217.6279   -2782.9008    441.57464    11871.407 
   94550    295.74672    196.62438   -3220.8127   -2780.9119    243.30001    11874.565 
   94600     300.4221    196.63663   -3221.2209   -2774.3658    215.40864     11877.56 
   94650    291.88326     196.4597   -3215.3233    -2781.169    402.09892    11880.405 
   94700    305.32918    196.98444   -3232.8145   -2778.6605   -45.395607    11883.137 
   94750    297.41885    196.71926   -3223.9754   -2781.5874    104.49191    11885.578 
   94800    287.99446    196.46152   -3215.3841   -2787.0141    340.00913    11887.779 
   94850    292.61253    196.62889    -3220.963    -2785.724    123.92144    11889.856 
   94900    301.12662    196.84669   -3228.2229   -2780.3198   -192.41058    11891.696 
   94950    293.43476     196.5864   -3219.5467   -2783.0848    3.2192674    11893.178 
   95000    299.40166     196.7136   -3223.7866   -2778.4493   -139.08869    11894.347 
   95050    285.92793    196.29215   -3209.7384   -2784.4423    259.47668    11895.175 
   95100    283.97968    196.22191   -3207.3971   -2784.9989    369.79181    11895.825 
   95150    295.87954    196.60577   -3220.1924   -2780.0941    44.701262    11896.347 
   95200     281.6688    196.24131   -3208.0436   -2789.0826     390.6429     11896.65 
   95250     290.4794    196.46413   -3215.4709   -2783.4048    211.69723    11896.829 
   95300    298.38417    196.72638   -3224.2125   -2780.3887    -19.45975     11896.82 
   95350     300.6468    196.79111   -3226.3703    -2779.181   -171.98678    11896.514 
   95400    305.33819    196.88736   -3229.5786   -2775.4112   -261.44378    11895.815 
   95450    282.71296    196.24382   -3208.1274   -2787.6133    307.31894    11894.715 
   95500    304.82085     196.8828   -3229.4265   -2776.0286   -236.40789    11893.395 
   95550    283.71255    196.24169   -3208.0564   -2786.0555    399.44104    11891.718 
   95600    293.07218    196.56426   -3218.8087   -2782.8861    236.97064    11889.888 
   95650    303.38615    196.78652   -3226.2173   -2774.9534   -38.790193    11887.891 
   95700    308.38654    196.92015   -3230.6717   -2771.9701   -118.53199    11885.559 
   95750    287.48434    196.28039   -3209.3465   -2781.7353    486.08557    11882.893 
   95800    290.95748    196.39453   -3213.1509   -2780.3737    385.28149    11880.141 
   95850    295.94678     196.6062   -3220.2067   -2780.0083    215.85038    11877.276 
   95900    290.30312    196.38307   -3212.7691   -2780.9652     466.5509     11874.24 
   95950    285.89479    196.27647   -3209.2158   -2783.9689    613.51274    11871.134 
   96000     298.1185    196.57803   -3219.2678   -2775.8391    438.51013    11868.009 
   96050    299.92492    196.61241   -3220.4135   -2774.2979    547.15732    11864.826 
   96100    306.51336    196.80502    -3226.834   -2770.9186    391.73038    11861.575 
   96150    298.23505    196.52328   -3217.4428   -2773.8407    611.62256     11858.23 
   96200    296.11043     196.4401     -3214.67   -2774.2281     833.1109    11854.883 
   96250    291.98885    196.27772   -3209.2573    -2774.946    1038.0663    11851.647 
   96300     306.1416    196.65895   -3221.9649   -2766.6024    657.80036      11848.6 
   96350    308.03894    196.66946   -3222.3155   -2764.1309    663.74986    11845.592 
   96400    309.43097    196.78815   -3226.2718   -2766.0166    594.87044    11842.594 
   96450    310.38584    196.78834   -3226.2779   -2764.6024    619.29636    11839.573 
   96500    299.89532    196.43905    -3214.635   -2768.5634    1046.4497    11836.581 
   96550    309.41384    196.65902   -3221.9672   -2761.7376    923.10018    11833.762 
   96600    304.68504    196.45151   -3215.0502   -2761.8543    1184.7557    11831.139 
   96650    313.95953    196.69644   -3223.2145   -2756.2235    1005.1286    11828.794 
   96700    315.13209    196.75764   -3225.2545   -2756.5194    982.32933    11826.623 
   96750    297.35359    196.16902   -3205.6342   -2763.3432    1447.5028     11824.66 
   96800    297.79419    196.12501   -3204.1671   -2761.2208    1493.6942    11823.107 
   96850     310.1368     196.4989   -3216.6299   -2755.3249    1214.7517    11821.994 
   96900    320.69641    196.79428   -3226.4761   -2749.4644    968.49775    11821.178 
   96950    315.07636    196.56805   -3218.9351   -2750.2829    1156.3354     11820.56 
   97000    320.49639    196.69886   -3223.2952   -2746.5811    1020.9822    11820.194 
   97050      297.823    195.97647   -3199.2157   -2756.2265    1643.2567    11820.085 
   97100    316.55106    196.49913   -3216.6378   -2745.7921    1224.2583    11820.447 
   97150    312.36668     196.3619   -3212.0635   -2747.4417    1314.1473     11821.16 
   97200    325.06312     196.6812   -3222.7067   -2739.1999    1026.6362    11822.186 
   97250    306.87227    196.23509   -3207.8364   -2751.3871    1427.7585    11823.476 
   97300    317.34139    196.54939   -3218.3131   -2746.2918    1145.2492    11825.138 
   97350    310.07384    196.38732   -3212.9108   -2751.6995    1221.0431    11827.112 
   97400    314.17398    196.40503   -3213.5011   -2746.1911    1149.3346    11829.395 
   97450    306.85576    196.19405   -3206.4684   -2750.0437    1250.5202    11831.981 
   97500    315.24659     196.4389     -3214.63   -2745.7246    993.02584    11834.871 
   97550    313.18072    196.34919   -3211.6397   -2745.8071    1133.0276    11837.974 
   97600    317.60554    196.47525   -3215.8415   -2743.4273    1023.9131     11841.35 
   97650    318.23116    196.50858   -3216.9528   -2743.6081    914.78279    11844.954 
   97700    306.67705    196.23227   -3207.7424   -2751.5835    1096.2744    11848.732 
   97750     308.8607    196.31531   -3210.5102   -2751.1033    945.97685    11852.757 
   97800    314.25349    196.45431   -3215.1438   -2747.7156     798.7548    11856.983 
   97850    306.68078    196.24082   -3208.0272   -2751.8628    1043.8086    11861.339 
   97900    304.07057    196.12693   -3204.2308   -2751.9489    1032.8045    11865.921 
   97950    302.46728    196.20534   -3206.8446   -2756.9475    947.11924    11870.743 
   98000    318.66773     196.6591   -3221.9701    -2747.976    503.09379     11875.76 
   98050    323.50934    196.79286   -3226.4286    -2745.233    206.92704    11880.737 
   98100    305.71397    196.39849   -3213.2829   -2758.5566    458.63336    11885.552 
   98150    290.59055    196.03707   -3201.2358   -2769.0044    745.81164     11890.33 
   98200    311.80439    196.54343   -3218.1144    -2754.329    171.14096    11895.158 
   98250    310.13351    196.46366   -3215.4555   -2754.1554    66.472751    11899.819 
   98300    312.20913    196.58296   -3219.4319   -2755.0445   -55.820356    11904.209 
   98350    289.26572    195.98549   -3199.5162   -2769.2554    525.36759    11908.328 
   98400    295.05916    196.21065   -3207.0216   -2768.1435    328.55969    11912.392 
   98450    297.58416     196.2195   -3207.3165   -2764.6827    172.57687    11916.345 
   98500    310.99249    196.72131   -3224.0438   -2761.4661   -345.16851    11920.058 
   98550    298.99502    196.40798   -3213.5992   -2768.8668   -113.69612    11923.342 
   98600    290.94126    196.11888   -3203.9626   -2771.2095     67.37483    11926.262 
   98650    299.97511    196.37946   -3212.6488   -2766.4585   -321.80887    11928.898 
   98700    311.90034     196.7784   -3225.9467   -2762.0186   -686.33048    11931.059 
   98750    294.07196     196.3714   -3212.3801   -2774.9704   -266.06217    11932.605 
   98800    285.90801    196.20152   -3206.7174   -2781.4509    -43.78516    11933.702 
   98850    273.64839    195.77033   -3192.3442    -2785.313     320.1607    11934.506 
   98900    289.60081    196.26498   -3208.8328   -2778.0736   -207.69875    11935.128 
   98950    297.22537    196.65841   -3221.9469   -2779.8466   -606.30895    11935.362 
   99000     298.0328     196.6513   -3221.7101   -2778.4089   -610.06839    11934.993 
   99050    286.22563    196.23348   -3207.7826   -2782.0437   -211.70805    11934.026 
   99100    273.04655    195.96208   -3198.7361      -2792.6     97.28772    11932.641 
   99150    290.74934     196.5211   -3217.3699   -2784.9023   -329.02988    11930.951 
   99200    276.03626    196.09963   -3203.3209   -2792.7379    68.483515    11928.857 
   99250    282.11514    196.26132   -3208.7108   -2789.0859   -72.231532    11926.466 
   99300    289.29225    196.57532   -3219.1772   -2788.8769   -339.22696    11923.738 
   99350    291.26721    196.71605   -3223.8684   -2790.6305   -427.16267    11920.545 
   99400    299.31531    196.90365   -3230.1218   -2784.9129   -525.25624    11916.817 
   99450    297.26497    196.82669   -3227.5565   -2785.3974   -398.81359    11912.518 
   99500    284.02624    196.59871   -3219.9569   -2797.4894   -3.5720767    11907.704 
   99550     264.3104    196.01643   -3200.5478   -2807.4061    582.06493    11902.591 
   99600    288.91246    196.60532   -3220.1772   -2790.4418   -28.176619    11897.427 
   99650    305.28405    197.02198   -3234.0661   -2779.9792   -420.31561    11891.963 
   99700    298.55364    196.85815   -3228.6049    -2784.529   -123.92744    11885.971 
   99750     297.8522     196.9688   -3232.2934   -2789.2608    -61.43842    11879.564 
   99800    294.96314    196.85306   -3228.4354      -2789.7    61.531796     11872.82 
   99850    294.60679    196.86605   -3228.8684   -2790.6632    178.20315    11865.774 
   99900    280.13264    196.45207    -3215.069   -2798.3929    650.55686    11858.526 
   99950    293.94015    196.83926   -3227.9753   -2790.7616    415.73276    11851.256 
  100000    300.48105    197.01796    -3233.932   -2786.9892    337.75111    11843.885 
Loop time of 26.7196 on 1 procs for 100000 steps with 500 atoms

Performance: 323.358 ns/day, 0.074 hours/ns, 3742.570 timesteps/s
99.8% CPU use with 1 MPI tasks x 1 OpenMP threads

MPI task timing breakdown:
Section |  min time  |  avg time  |  max time  |%varavg| %total
---------------------------------------------------------------
Pair    | 22.243     | 22.243     | 22.243     |   0.0 | 83.24
Bond    | 0.0061338  | 0.0061338  | 0.0061338  |   0.0 |  0.02
Neigh   | 0.48485    | 0.48485    | 0.48485    |   0.0 |  1.81
Comm    | 0.78364    | 0.78364    | 0.78364    |   0.0 |  2.93
Output  | 0.018123   | 0.018123   | 0.018123   |   0.0 |  0.07
Modify  | 2.7449     | 2.7449     | 2.7449     |   0.0 | 10.27
Other   |            | 0.4393     |            |       |  1.64

Nlocal:    500 ave 500 max 500 min
Histogram: 1 0 0 0 0 0 0 0 0 0
Nghost:    1627 ave 1627 max 1627 min
Histogram: 1 0 0 0 0 0 0 0 0 0
Neighs:    14724 ave 14724 max 14724 min
Histogram: 1 0 0 0 0 0 0 0 0 0

Total # of neighbors = 14724
Ave neighs/atom = 29.448
Ave special neighs/atom = 0
Neighbor list builds = 579
Dangerous builds = 0

write_data      ${walker}/final_restart_file
write_data      1/final_restart_file

quit
