LAMMPS (19 May 2017)
Processor partition = 1
  using 1 OpenMP thread(s) per MPI task
# gREM variables
variable        lambda world 1000 1005 1010 1015 1020 1025 1030 1035 1040 1045 1050 1055 1060 1065 1070 1075
variable        walker world 0 1 2 3 4 5 6 7 8 9 10 11 12 13 14 15
variable        replica world 4 9 1 7 0 12 3 5 8 13 14 6 15 11 2 10

variable        T0 equal 300.0
variable        press equal 0.0

units           real
atom_style      full
pair_style      lj/cut 5.0

# LJ particles
read_data       ${walker}/restart_file
read_data       1/restart_file
  orthogonal box = (1.02218 1.02218 1.02218) to (23.9778 23.9778 23.9778)
  1 by 1 by 1 MPI processor grid
  reading atoms ...
  500 atoms
  reading velocities ...
  500 velocities
  0 = max # of 1-2 neighbors
  0 = max # of 1-3 neighbors
  0 = max # of 1-4 neighbors
  1 = max # of special neighbors

#dump            dump all xyz 1000 ${walker}/dump.xyz

fix             fxnpt all npt temp ${T0} ${T0} 1000.0 iso ${press} ${press} 10000.0
fix             fxnpt all npt temp 300 ${T0} 1000.0 iso ${press} ${press} 10000.0
fix             fxnpt all npt temp 300 300 1000.0 iso ${press} ${press} 10000.0
fix             fxnpt all npt temp 300 300 1000.0 iso 0 ${press} 10000.0
fix             fxnpt all npt temp 300 300 1000.0 iso 0 0 10000.0
fix             fxgREM all grem ${lambda} -.03 -30000 fxnpt
fix             fxgREM all grem 1005 -.03 -30000 fxnpt
thermo_modify   press fxgREM_press

thermo          50
thermo_style    custom step temp f_fxgREM pe etotal press vol
WARNING: New thermo_style command, previous thermo_modify settings will be lost (../output.cpp:705)
timestep        1.0

temper/grem     100000 1000 ${lambda} fxgREM fxnpt 10294 98392 ${walker}
temper/grem     100000 1000 1005 fxgREM fxnpt 10294 98392 ${walker}
temper/grem     100000 1000 1005 fxgREM fxnpt 10294 98392 1
Neighbor list info ...
  update every 1 steps, delay 10 steps, check yes
  max neighbors/atom: 2000, page size: 100000
  master list distance cutoff = 7
  ghost atom cutoff = 7
  binsize = 3.5, bins = 7 7 7
  1 neighbor lists, perpetual/occasional/extra = 1 0 0
  (1) pair lj/cut, perpetual
      attributes: half, newton on
      pair build: half/bin/newton
      stencil: half/bin/3d/newton
      bin: standard
Per MPI rank memory allocation (min/avg/max) = 5.724 | 5.724 | 5.724 Mbytes
Step Temp f_fxgREM PotEng TotEng Press Volume 
       0    312.37218    199.19525   -3139.8416   -2675.2116     269.9936    12096.737 
      50    307.93215    199.20266   -3140.0886   -2682.0629     307.7705    12096.658 
     100    320.24154     199.5187   -3150.6232   -2674.2882   -19.396449    12096.422 
     150    334.85076    199.87594   -3162.5315   -2664.4664   -293.61114     12095.85 
     200    316.91957    199.35098   -3145.0326   -2673.6387    269.19718    12094.825 
     250    308.15825    199.05707   -3135.2357   -2676.8737    523.67874     12093.62 
     300    328.75005    199.69915   -3156.6385   -2667.6477   -133.25863    12092.338 
     350     330.3146     199.8069   -3160.2299   -2668.9119   -233.70338    12090.678 
     400    310.66559    199.25212   -3141.7373   -2679.6458     291.5029    12088.616 
     450    315.94923    199.40831   -3146.9436    -2676.993    129.56208    12086.351 
     500    321.73967    199.65844   -3155.2815   -2676.7181   -79.726435    12083.818 
     550    319.59317    199.64933   -3154.9778   -2679.6071   -26.096354    12080.941 
     600    327.71502    199.91793   -3163.9309   -2676.4796   -261.50075    12077.716 
     650    328.58621    199.98056   -3166.0185   -2677.2715   -318.83999    12074.047 
     700    323.79205    199.95013   -3165.0042   -2683.3881    -139.3728      12069.9 
     750    306.93298     199.4563   -3148.5433   -2692.0037    359.54563    12065.383 
     800    334.52744    200.24587   -3174.8624   -2677.2782    -342.3999    12060.668 
     850     326.1613    200.12767   -3170.9224   -2685.7821   -206.09108      12055.5 
     900    294.63328    199.30182    -3143.394   -2705.1493     589.4858    12049.937 
     950    312.30942      199.879   -3162.6333   -2698.0967    165.19804    12044.301 
    1000    311.72941    199.85129   -3161.7097   -2698.0358    208.18178    12038.484 
    1050    311.97609    199.93382   -3164.4607   -2700.4199    237.21647    12032.459 
    1100     312.4479    200.08368   -3169.4561   -2704.7136    236.35285    12026.251 
    1150    310.49938    199.97401   -3165.8003    -2703.956    324.87038    12019.873 
    1200    320.15338    200.35376   -3178.4586   -2702.2547    52.944333     12013.33 
    1250    311.12301    200.22374   -3174.1247   -2711.3528    228.94572    12006.524 
    1300    313.23895    200.23953   -3174.6512    -2708.732    249.60105     11999.52 
    1350    308.02215    200.18441   -3172.8137   -2714.6541    383.69783    11992.366 
    1400    312.55587    200.31379   -3177.1262    -2712.223    311.81051    11985.101 
    1450    328.83573    200.79091   -3193.0302    -2703.912   -34.682639     11977.67 
    1500    325.41176    200.65735   -3188.5782   -2704.5529    160.69012    11969.935 
    1550    313.12598    200.49809   -3183.2696   -2717.5185    558.29532    11961.991 
    1600    307.91279    200.36529   -3178.8432   -2720.8462     751.5794    11954.027 
    1650    312.53598    200.67371   -3189.1238   -2724.2502    580.33607    11946.142 
    1700    308.85104    200.49296   -3183.0986   -2723.7061     756.5446    11938.292 
    1750    323.94927    200.99852   -3199.9508   -2718.1008    439.11985    11930.511 
    1800    316.39809    200.76698   -3192.2328   -2721.6146    777.99298    11922.695 
    1850    314.45137     200.7005   -3190.0166    -2722.294    964.63334    11914.973 
    1900    320.56774    200.96334   -3198.7781   -2721.9579    810.60717    11907.433 
    1950    309.23415    200.66523    -3188.841   -2728.8786    1166.0751    11900.039 
    2000    305.77271    200.56512   -3185.5039   -2730.6901    1291.9723    11892.947 
    2050    303.13218    200.54742   -3184.9141   -2734.0279     1320.746    11886.238 
    2100    322.23851    201.22375   -3207.4583   -2728.1529    844.52016    11879.891 
    2150    329.38547    201.45328   -3215.1094   -2725.1735    704.51563    11873.697 
    2200    312.92066    201.01338   -3200.4459   -2735.0001    1296.2589    11867.586 
    2250    313.47114     200.9977   -3199.9232   -2733.6586    1408.4242    11861.821 
    2300    314.49206    201.00608   -3200.2026   -2732.4195    1343.9511    11856.489 
    2350    308.66406    200.96339   -3198.7796   -2739.6653    1418.5631    11851.562 
    2400    310.98502    201.09846   -3203.2819   -2740.7152    1377.2238    11847.055 
    2450    307.25751    201.03982   -3201.3274   -2744.3052    1465.1308    11842.971 
    2500    309.57529    201.11617   -3203.8724   -2743.4026    1393.4793    11839.323 
    2550    310.84862    201.18362   -3206.1207   -2743.7569    1353.4636    11836.103 
    2600    320.67505    201.56632   -3218.8774   -2741.8975    1039.6136    11833.262 
    2650    308.56091    201.12142   -3204.0472   -2745.0862    1369.2585    11830.699 
    2700    313.09757    201.28339   -3209.4464   -2743.7375    1328.9049    11828.514 
    2750    306.07693    201.25609   -3208.5364   -2753.2701    1493.5181    11826.728 
    2800    306.23552    201.31392    -3210.464   -2754.9619    1468.0243     11825.41 
    2850     289.7782    200.88025   -3196.0083   -2764.9852    1825.3967    11824.571 
    2900    313.60252    201.51668   -3217.2227   -2750.7627    1130.0183    11824.316 
    2950    312.30677     201.4818     -3216.06   -2751.5273     1196.917    11824.402 
    3000     310.0834    201.48633   -3216.2109   -2754.9854    1250.9458    11824.813 
    3050    317.15081    196.74519   -3224.8398    -2753.102     940.8369    11825.528 
    3100    301.47621    196.26034   -3208.6779   -2760.2549     1318.711    11826.436 
    3150    304.95539    196.42849   -3214.2828   -2760.6848    1223.5004    11827.683 
    3200    313.95502    196.74297   -3224.7657   -2757.7814    860.53792     11829.23 
    3250    297.91455    196.33243   -3211.0809   -2767.9556    1160.1263    11830.966 
    3300    307.01049    196.60789   -3220.2629    -2763.608    823.34598    11832.966 
    3350    309.15819    196.64162   -3221.3874   -2761.5381    730.62223    11835.083 
    3400    300.69448    196.42345   -3214.1149   -2766.8547    901.26697    11837.275 
    3450    313.67597    196.76885   -3225.6285   -2759.0592    562.99964    11839.592 
    3500    301.84531     196.4715   -3215.7166   -2766.7446    842.01225    11841.934 
    3550    303.85735    196.48365   -3216.1218    -2764.157    747.43934    11844.362 
    3600    294.20042    196.38628    -3212.876   -2775.2751    819.04454    11846.875 
    3650    301.49795    196.61672   -3220.5572   -2772.1018    533.02174    11849.493 
    3700    300.73916     196.6423     -3221.41   -2774.0832     574.8265    11852.109 
    3750    312.09202    196.92757    -3230.919   -2766.7057    322.22474    11854.694 
    3800    302.73663    196.65867   -3221.9557   -2771.6579      486.603    11857.156 
    3850    305.27366    196.70963   -3223.6545    -2769.583    407.19019    11859.536 
    3900    296.65702    196.54441   -3218.1469    -2776.892    502.36859    11861.832 
    3950    299.82353     196.7107   -3223.6899   -2777.7251    338.10155    11864.059 
    4000    270.95863    195.87643   -3195.8808   -2792.8504    1032.7379    11866.213 
    4050    276.74333    201.02976   -3200.9922   -2789.3574    885.67818    11868.572 
    4100    302.90872    201.91783   -3230.5944   -2780.0406     147.5451    11871.086 
    4150    293.38734    201.55812    -3218.604   -2782.2126    358.03136    11873.449 
    4200    301.50002     201.8964     -3229.88   -2781.4216   -14.735011    11875.663 
    4250    292.32974    201.65621   -3221.8737   -2787.0554    114.14485    11877.614 
    4300    285.77333    201.49276   -3216.4252    -2791.359    254.82617    11879.364 
    4350    282.26079    201.30828   -3210.2761   -2790.4345    431.27938    11880.964 
    4400    287.11342    201.39164   -3213.0545   -2785.9951    332.98895     11882.48 
    4450    276.75449    201.15533   -3205.1776   -2793.5263    583.76196    11883.914 
    4500    276.55196     201.1569   -3205.2301     -2793.88    542.12293     11885.37 
    4550    298.89522    201.86662   -3228.8875   -2784.3035   -91.441933    11886.797 
    4600    278.31908     201.1586   -3205.2867   -2791.3082    424.42425    11887.965 
    4650    287.39832    201.43961   -3214.6536   -2787.1704    178.78341     11889.02 
    4700    286.23471     201.4195   -3213.9833   -2788.2308    208.55386    11889.917 
    4750    301.30383    201.84503   -3228.1677    -2780.001   -111.57778    11890.614 
    4800    282.21162    201.37592   -3212.5308   -2792.7624    346.73822    11891.008 
    4850    275.52747    201.09598   -3203.1994   -2793.3731    553.13819    11891.299 
    4900    284.80807    201.35364   -3211.7878   -2788.1574    275.01863    11891.585 
    4950    302.73775    201.84059   -3228.0196   -2777.7201   -159.91803    11891.728 
    5000    290.71534    201.45219   -3215.0729   -2782.6559    163.21099    11891.553 
    5050    294.63766    196.53465   -3217.8217   -2779.5705    85.926515    11891.142 
    5100    299.33279    196.65832   -3221.9441   -2776.7092   -13.723462    11890.479 
    5150     285.9548    196.28073   -3209.3578   -2784.0217     312.2736    11889.537 
    5200    296.06838    196.67481   -3222.4938   -2782.1145    87.148086     11888.41 
    5250    287.64675    196.34453   -3211.4842   -2783.6315    388.56493    11887.076 
    5300     294.8681    196.60358   -3220.1193   -2781.5253    200.32502    11885.617 
    5350    300.47224    196.70378   -3223.4595   -2776.5298    59.397188    11883.953 
    5400    283.58893    196.17016   -3205.6719   -2783.8548    548.95724    11882.057 
    5450    294.17533    196.48404   -3216.1347   -2778.5712    340.62064    11880.095 
    5500    309.68073    196.88145   -3229.3815   -2768.7549  -0.44591297    11877.997 
    5550    300.08793    196.50504   -3216.8346   -2770.4765    370.19765    11875.637 
    5600    301.56845    196.63825   -3221.2751   -2772.7149    372.74867    11873.132 
    5650    297.42153    196.54358   -3218.1192   -2775.7272    533.34779     11870.52 
    5700    301.86511     196.5457   -3218.1901   -2769.1887    540.39185    11867.888 
    5750      295.934    196.35809   -3211.9364    -2771.757    753.78463    11865.246 
    5800    295.63317    196.31554   -3210.5181   -2770.7862    777.50363    11862.679 
    5850    306.84359    196.54059   -3218.0196   -2761.6131    613.19104    11860.199 
    5900    301.72287    196.39986   -3213.3288   -2764.5389    850.87963     11857.74 
    5950    314.32319    196.81665   -3227.2216   -2759.6897    617.87099     11855.38 
    6000    291.80285    196.12591   -3204.1971   -2770.1625    1239.2057    11853.088 
    6050    301.42152    196.29482   -3209.8275   -2761.4858    995.55294    11851.083 
    6100    310.59568    196.60097   -3220.0322   -2758.0447    723.06937    11849.283 
    6150    312.49322    196.66809   -3222.2696   -2757.4596    713.07157     11847.55 
    6200    307.77523    196.48843   -3216.2809   -2758.4886    982.78302    11845.888 
    6250    307.07171    196.38427    -3212.809   -2756.0631    1008.9505    11844.414 
    6300    315.96246    196.70387   -3223.4625   -2753.4923    732.45718    11843.131 
    6350    310.70657    196.43441   -3214.4803   -2752.3278    1023.9827    11841.937 
    6400    311.20596    196.47758   -3215.9193    -2753.024    1071.6986    11840.933 
    6450    296.11281    196.04349   -3201.4496   -2761.0043    1427.5081    11840.201 
    6500    304.11371    196.29177   -3209.7256   -2757.3795    1243.5024    11839.861 
    6550    304.18417    196.17479   -3205.8263   -2753.3754    1344.1196    11839.881 
    6600    317.14929    196.54187   -3218.0623   -2746.3268    1042.4723    11840.243 
    6650    308.72648    196.30995   -3210.3317   -2751.1245    1222.7191    11840.861 
    6700    311.61251    196.34307   -3211.4357   -2747.9357    1136.2766    11841.779 
    6750    314.83284    196.37195   -3212.3985   -2744.1085    1038.0376    11842.957 
    6800    313.53088     196.3936     -3213.12   -2746.7666    1085.8591    11844.351 
    6850    309.98027    196.28829   -3209.6098   -2748.5376    1115.5192    11846.014 
    6900     311.5075    196.34829   -3211.6097   -2748.2659    1045.9954    11847.933 
    6950    301.23486    196.01832   -3200.6108   -2752.5468    1296.1133    11850.106 
    7000    319.18898    196.52065   -3217.3549   -2742.5855    808.99554    11852.594 
    7050    313.74666     196.3698   -3212.3267   -2745.6523    873.61658    11855.208 
    7100    318.95241    196.51677   -3217.2255    -2742.808    690.20088    11857.933 
    7150    311.01193    196.37312   -3212.4374   -2749.8308    838.85138    11860.706 
    7200    294.62518    195.97323   -3199.1077   -2760.8751    1146.4231    11863.612 
    7250    323.90489    196.76892   -3225.6308   -2743.8468    282.10321    11866.739 
    7300    306.38908    196.27464   -3209.1545    -2753.424    678.07155     11869.79 
    7350    313.09414    196.49065   -3216.3551   -2750.6513    519.17017    11872.831 
    7400     294.7284    195.95272    -3198.424   -2760.0378    958.16196    11875.889 
    7450    318.07943    196.59422   -3219.8075   -2746.6884    349.09591    11879.067 
    7500    291.15749    195.83785   -3194.5949   -2761.5202    975.25821    11882.182 
    7550     316.6944    196.51535   -3217.1782   -2746.1193    317.44898    11885.401 
    7600    301.98683    196.14759   -3204.9197   -2755.7372     600.8599    11888.546 
    7650    302.94668    196.20391   -3206.7969   -2756.1867    577.64818    11891.675 
    7700    311.89235    196.48554   -3216.1848   -2752.2685    272.81248    11894.782 
    7750    292.90734    196.02578   -3200.8593   -2765.1818    564.34195    11897.768 
    7800     304.6738    196.35217   -3211.7389   -2758.5598    219.95477    11900.704 
    7850    296.22262    196.09243   -3203.0809   -2762.4722    429.89515    11903.487 
    7900    308.09556    196.52936   -3217.6453   -2759.3765    11.038293    11906.145 
    7950    303.01503    196.53592   -3217.8639    -2767.152   -6.6600806     11908.53 
    8000    300.17042    196.48642   -3216.2141   -2769.7333      2.40104    11910.613 
    8050     287.5538    196.13169   -3204.3896   -2776.6751    341.30018    11912.423 
    8100     301.6882     196.6125   -3220.4167   -2771.6783   -69.864372    11914.066 
    8150    314.54897    196.99785   -3233.2618    -2765.394   -511.67021    11915.366 
    8200    287.39979    196.29046   -3209.6819   -2782.1965    61.172075    11916.139 
    8250    276.53628    195.97877   -3199.2922   -2787.9654     275.7266     11916.64 
    8300    294.42487     196.6562   -3221.8732   -2783.9385   -316.59942    11916.956 
    8350    295.87447    196.66819    -3222.273   -2782.1822   -387.71896    11916.832 
    8400    281.94625    196.26645   -3208.8818   -2789.5081    19.947405    11916.219 
    8450    283.72639    196.36285    -3212.095   -2790.0736   -82.168525    11915.298 
    8500    291.89599    196.70563   -3223.5209   -2789.3478   -419.37114    11914.037 
    8550    285.01315    196.55289   -3218.4297   -2794.4943   -252.14772    11912.273 
    8600    284.88411     196.6181   -3220.6034   -2796.8599   -284.21475    11910.076 
    8650     282.1806    196.57223   -3219.0745   -2799.3522   -219.23263    11907.446 
    8700    285.37491      196.701   -3223.3667   -2798.8931   -309.83428    11904.394 
    8750    279.24425    196.60402   -3220.1339   -2804.7793   -190.81685    11900.906 
    8800    288.75943    196.91671    -3230.557   -2801.0492   -394.42717    11897.008 
    8850    284.14837    196.77029   -3225.6762   -2803.0271   -172.45217     11892.63 
    8900    273.80756    196.49107    -3216.369    -2809.101    256.97085    11887.863 
    8950     277.4652    196.53746   -3217.9153   -2805.2068    194.92953    11882.931 
    9000    297.03602    197.15484   -3238.4947   -2796.6762   -317.82649    11877.776 
    9050    291.95515    196.99038   -3233.0126   -2798.7515   -106.68679    11872.186 
    9100    277.14619    196.61404   -3220.4681   -2808.2341    348.30032    11866.248 
    9150    277.63267    196.63449   -3221.1498   -2808.1923    374.49987    11860.176 
    9200    302.08641    197.36361   -3245.4536    -2796.123   -220.27265    11853.964 
    9250     285.5093    196.82301   -3227.4336   -2802.7601     332.4468    11847.403 
    9300    287.88188    196.89847    -3229.949   -2801.7465    346.24224    11840.676 
    9350    289.09673    196.86417   -3228.8055    -2798.796    361.07654    11833.822 
    9400    296.87605    197.04441   -3234.8135   -2793.2329     257.4997    11826.833 
    9450    289.46324    196.81881   -3227.2937   -2796.7391    590.20152    11819.694 
    9500    280.37774    196.68806   -3222.9352   -2805.8946    933.22789    11812.553 
    9550    296.52166    197.09661   -3236.5536   -2795.5001    648.07633    11805.558 
    9600    296.12977    197.10718   -3236.9061   -2796.4355    802.05124    11798.613 
    9650    301.68591    197.28008   -3242.6694   -2793.9345    822.39316    11791.751 
    9700    297.66132    197.13622   -3237.8738   -2795.1252    1046.6572    11785.015 
    9750    285.48445    196.76492   -3225.4972   -2800.8607    1369.4727    11778.516 
    9800    292.37273     196.9937   -3233.1233    -2798.241    1216.1128    11772.389 
    9850    295.76969    197.12741   -3237.5803   -2797.6453    1196.4603    11766.592 
    9900    302.35868    197.22794   -3240.9313   -2791.1957    1191.9166    11761.094 
    9950    288.84957    196.80642   -3226.8806   -2797.2387    1736.5041    11755.916 
   10000    293.98611    196.97348   -3232.4494   -2795.1673    1643.4557    11751.278 
   10050    304.23926    197.23481   -3241.1604   -2788.6276    1390.2522    11747.178 
   10100    314.43987    197.51565   -3250.5217   -2782.8162    1244.0668    11743.462 
   10150    299.98324     197.0273   -3234.2434    -2788.041    1731.3999    11740.097 
   10200    300.74024    197.06874   -3235.6247   -2788.2964    1675.6373     11737.27 
   10250    296.82942     196.9816   -3232.7201   -2791.2089    1750.7833    11734.991 
   10300    303.66311      197.178   -3239.2666   -2787.5907    1640.6043    11733.294 
   10350    306.03665    197.23199   -3241.0663     -2785.86    1544.4394    11732.129 
   10400    296.88397    196.99276    -3233.092   -2791.4996     1794.716    11731.446 
   10450    298.59763    197.08027    -3236.009   -2791.8676    1729.0801    11731.351 
   10500    304.20663    197.18307   -3239.4356   -2786.9513    1590.0524    11731.842 
   10550    321.80473    197.61472   -3253.8241    -2775.164    1175.4112    11732.813 
   10600    313.99884    197.32664   -3244.2215    -2777.172    1384.9108    11734.094 
   10650    305.87545    197.19391   -3239.7969   -2784.8303    1521.8148    11735.761 
   10700    311.38171    197.26121   -3242.0403   -2778.8836    1429.2493    11737.875 
   10750    294.96302    196.80182   -3226.7273   -2787.9921    1826.8917    11740.445 
   10800    299.95693    196.97007   -3232.3358   -2786.1726    1658.6286    11743.616 
   10850    292.72101    196.63819   -3221.2731   -2785.8728    1898.6822    11747.362 
   10900     292.1097    196.74848   -3224.9493   -2790.4583    1874.2395     11751.77 
   10950    305.24875    197.14566   -3238.1885   -2784.1542    1469.2701    11756.826 
   11000    299.76995    196.98908   -3232.9694   -2787.0843    1490.3948    11762.366 
   11050    303.16389    197.01782   -3233.9273    -2782.994    1292.7768    11768.369 
   11100    294.02294     196.7619   -3225.3966   -2788.0598    1452.6845    11774.766 
   11150    306.74956    197.09096   -3236.3653   -2780.0986    1135.7899    11781.595 
   11200    322.87467    197.50264   -3250.0881   -2769.8365    598.75055    11788.719 
   11250    309.22741     197.0387   -3234.6234    -2774.671    846.08211    11795.894 
   11300    297.58177    196.79463   -3226.4877   -2783.8574    1028.6304    11803.198 
   11350    286.78219      196.509   -3216.9667      -2790.4    1242.9259    11810.761 
   11400    286.12409    196.42385   -3214.1283   -2788.5404    1164.7671    11818.676 
   11450    309.70787    197.01669   -3233.8897   -2773.2227    486.30381    11826.872 
   11500    307.97067    196.93393   -3231.1311   -2773.0481    507.21933    11835.085 
   11550    305.49485    196.84989   -3228.3298   -2773.9294    568.58389    11843.272 
   11600    297.41267    196.55494   -3218.4981   -2776.1193    676.58738    11851.462 
   11650    291.80958    196.39994   -3213.3314   -2779.2868    681.54034    11859.723 
   11700    278.27347    196.05514   -3201.8378   -2787.9272    894.41599    11868.102 
   11750     297.9327     196.6003   -3220.0099   -2776.8576    299.28187    11876.635 
   11800    305.22238    196.80247   -3226.7489   -2772.7538   -25.448666    11885.056 
   11850    290.30401    196.30413   -3210.1377   -2778.3324    319.96495     11893.22 
   11900    296.56061    196.41042   -3213.6807   -2772.5692     181.2728    11901.254 
   11950    289.88171    196.19504   -3206.5014   -2775.3243    299.16449    11909.116 
   12000    304.58369    196.59296   -3219.7653   -2766.7201    -37.83462    11916.814 
   12050    285.50298    196.08441   -3202.8138   -2778.1498    373.32073    11924.263 
   12100    285.82038    195.95932    -3198.644   -2773.5078     299.3596      11931.6 
   12150    293.28414    196.15514   -3205.1714   -2768.9335    17.530497    11938.821 
   12200    308.12258    196.52802   -3217.6005   -2759.2915   -412.96791    11945.752 
   12250    312.37229    196.55732   -3218.5773   -2753.9472   -572.16537    11952.178 
   12300    300.28492     196.1252   -3204.1732   -2757.5222   -277.60671    11958.031 
   12350    302.95964    196.15238   -3205.0793   -2754.4498   -396.78146    11963.411 
   12400    295.74491     195.9342   -3197.8066   -2757.9085   -263.79941    11968.324 
   12450    296.79479    195.98286   -3199.4288    -2757.969   -202.67991    11972.792 
   12500    288.49886    195.67771   -3189.2571   -2760.1369    87.018416    11976.858 
   12550      290.614    195.70759    -3190.253   -2757.9867    2.3726166    11980.675 
   12600    307.82348    196.16594   -3205.5312   -2747.6671   -466.05254    11984.177 
   12650    290.23247    195.60462   -3186.8207   -2755.1219    28.749107    11987.181 
   12700    306.47098    195.98768   -3199.5892   -2743.7369   -280.51223    11989.845 
   12750    293.37928    195.55758   -3185.2526   -2748.8732    89.658305    11992.108 
   12800     293.7137    195.50319   -3183.4398   -2746.5629    66.513342    11994.099 
   12850    302.17452    195.68924   -3189.6414   -2740.1797   -160.64384    11995.813 
   12900    307.13288    195.70217   -3190.0723   -2733.2354   -218.46225    11997.145 
   12950    323.84073    196.12666   -3204.2219   -2722.5333   -583.78972    11998.031 
   13000    321.55051    196.09759   -3203.2529   -2724.9709   -495.86349    11998.284 
   13050    307.87985    195.67331   -3189.1103   -2731.1624   -133.49363    11997.965 
   13100    314.19276    195.81106   -3193.7019    -2726.364   -274.65367    11997.237 
   13150    304.93155    195.51894   -3183.9647   -2730.4022   -14.900708    11996.059 
   13200    301.73552    195.46528   -3182.1759   -2733.3672     114.8459    11994.543 
   13250    308.65143    195.62848   -3187.6161   -2728.5205   -56.845117    11992.741 
   13300    307.30175    195.63237   -3187.7457   -2730.6577   -53.995315    11990.595 
   13350    320.97686    195.88246    -3196.082   -2718.6533   -231.80345    11988.087 
   13400    298.83855    195.31822    -3177.274   -2732.7743    276.41773     11985.17 
   13450    316.50756    195.90561   -3196.8535   -2726.0725   -176.96922    11982.011 
   13500     315.2323     195.8968   -3196.5601   -2727.6759   -54.762943    11978.464 
   13550    308.58475    195.65456   -3188.4853   -2729.4888    159.60569    11974.569 
   13600    311.60348    195.75493    -3191.831   -2728.3444    59.762498    11970.403 
   13650    301.55089    195.46422   -3182.1407   -2733.6066    396.34437    11965.955 
   13700    313.62048    195.80953    -3193.651   -2727.1643    178.99248    11961.367 
   13750    312.07026    195.73708   -3191.2361   -2727.0553    276.79389     11956.56 
   13800    329.09696    196.23646    -3207.882   -2718.3752    7.4961639    11951.516 
   13850    313.01823    195.78972   -3192.9908   -2727.3999    531.86335    11946.183 
   13900    313.91281     195.7836   -3192.7867   -2725.8652    546.79066    11940.757 
   13950    301.02384     195.4367   -3181.2235   -2733.4733    836.79166    11935.301 
   14000    326.19189    196.22234   -3207.4115   -2722.2257    180.23396    11929.898 
   14050    321.05312    196.13821   -3204.6069   -2727.0647    316.45459    11924.301 
   14100    311.57853    195.88939   -3196.3131   -2732.8636    664.83109    11918.524 
   14150    309.27316    195.88992   -3196.3307   -2736.3103    762.15185    11912.753 
   14200    302.85209    195.78281   -3192.7604   -2742.2909    935.19386    11907.053 
   14250    323.72531    196.33449   -3211.1497   -2729.6328    449.28427    11901.475 
   14300    317.39748    196.21593   -3207.1975   -2735.0928    692.39005    11895.828 
   14350    318.50487    196.26708   -3208.9028   -2735.1509    725.52749    11890.189 
   14400    322.65607    196.41999   -3213.9997   -2734.0733    671.38332    11884.582 
   14450    304.58997    195.87645   -3195.8818   -2742.8273    1187.3661    11879.025 
   14500     306.4592    195.98563   -3199.5209    -2743.686    1074.9603    11873.727 
   14550     314.8042    196.24969   -3208.3229   -2740.0755    890.48745    11868.638 
   14600     313.5951    196.21261   -3207.0869   -2740.6379    915.03535    11863.706 
   14650    326.22577    196.61501   -3220.5004   -2735.2643    589.85018    11858.881 
   14700    297.45256    195.85212   -3195.0707   -2752.6325    1375.1182     11854.08 
   14750    306.82699    196.17916    -3205.972   -2749.5901    1103.0318    11849.608 
   14800    312.12002     196.3975     -3213.25   -2748.9952    913.94071    11845.388 
   14850     306.5593    196.31072   -3210.3573   -2754.3736    1156.9367    11841.313 
   14900    302.05714    196.19794   -3206.5981    -2757.311     1273.531    11837.494 
   14950    318.71195    196.61969   -3220.6562   -2746.5964    841.88521    11833.981 
   15000    321.50572    196.76975   -3225.6584    -2747.443     790.3552    11830.598 
   15050    309.45421    201.42305   -3214.1015   -2753.8119     1202.175    11827.305 
   15100    301.54587    201.33147   -3211.0491   -2762.5224    1389.1885    11824.306 
   15150    308.66154    201.53883   -3217.9611   -2758.8505     1144.133    11821.702 
   15200    302.84548    201.42838   -3214.2794   -2763.8197    1190.8292    11819.409 
   15250     310.5057     201.8078   -3226.9265   -2765.0729    935.05706    11817.404 
   15300    297.86075     201.4463   -3214.8768   -2771.8315    1291.8515    11815.621 
   15350    303.12473    201.60748   -3220.2492   -2769.3742     1154.219     11814.18 
   15400    310.50219    201.80001   -3226.6671   -2764.8186    977.11139    11813.034 
   15450    291.96134    201.27708   -3209.2362   -2774.9658    1527.5173    11812.138 
   15500    293.50624    201.29779   -3209.9262   -2773.3579    1510.3894    11811.691 
   15550    290.35382    201.26204   -3208.7347   -2776.8554    1507.5104    11811.746 
   15600    304.16628    201.50353   -3216.7842   -2764.3599    1181.6067    11812.286 
   15650    306.49904    201.70891   -3223.6302   -2767.7362    1055.0685    11813.155 
   15700    303.78782    201.66406   -3222.1352   -2770.2739    1123.5737    11814.297 
   15750    299.90347    201.54421   -3218.1404   -2772.0567    1183.2166    11815.729 
   15800    291.11864    201.22529   -3207.5097   -2774.4928     1367.267    11817.496 
   15850    289.20047    201.22839   -3207.6128   -2777.4491     1340.197    11819.676 
   15900    302.44291    201.70383    -3223.461   -2773.6001    888.35398    11822.237 
   15950    303.66679    201.71592   -3223.8641   -2772.1827    838.15251    11825.009 
   16000    295.35991    201.56428   -3218.8092   -2779.4837    994.88498    11827.954 
   16050    319.84127    207.32042    -3244.014   -2768.2743    288.60332    11831.081 
   16100    281.01805    206.10676   -3203.5586   -2785.5656    1298.8904    11834.206 
   16150     292.1996    206.34922   -3211.6407   -2777.0159    1045.1473    11837.657 
   16200    283.28668    206.13098   -3204.3661   -2782.9986    1209.4194    11841.444 
   16250    288.15559    206.34474   -3211.4914   -2782.8818    911.79702    11845.593 
   16300    306.92219    206.89299   -3229.7662   -2773.2427    350.41074    11849.953 
   16350    301.17101    206.65974   -3221.9915   -2774.0224    543.06325    11854.272 
   16400     289.3851    206.26613    -3208.871   -2778.4325    943.19002    11858.615 
   16450    279.23038    206.01661   -3200.5536   -2785.2196     1157.136    11863.212 
   16500     291.9838    206.38774   -3212.9248    -2778.621     731.4899    11868.146 
   16550    284.68231    206.09039   -3203.0131   -2779.5697    813.87079    11873.259 
   16600    298.67484    206.44848   -3214.9492   -2770.6931    422.45864     11878.52 
   16650    290.18866    206.26119   -3208.7062   -2777.0725    513.96581    11883.788 
   16700    281.63939    206.10328   -3203.4428   -2784.5255    540.93367    11889.081 
   16750    294.55502    206.54553   -3218.1844   -2780.0561    93.829352    11894.382 
   16800    280.90288    206.00986   -3200.3287   -2782.5069    472.93286    11899.565 
   16850    298.87546    206.55588   -3218.5294   -2773.9748   -33.324209    11904.704 
   16900    285.39727    206.17555   -3205.8516   -2781.3448    284.10752    11909.647 
   16950    298.27972     206.5314   -3217.7133   -2774.0449   -154.19937    11914.452 
   17000    299.47359    206.54269   -3218.0898   -2772.6455   -247.71416    11918.956 
   17050    289.10004    201.25832   -3208.6107   -2778.5963    22.276923    11923.102 
   17100    281.29197    201.01113    -3200.371   -2781.9705    216.53136    11926.996 
   17150    296.08942    201.33926   -3211.3087   -2770.8982   -149.03563    11930.719 
   17200    300.75294    201.45252   -3215.0839   -2767.7367   -243.05599    11934.124 
   17250    288.21928    200.98426   -3199.4753    -2770.771     131.7357    11937.169 
   17300    295.02208    201.16838   -3205.6126   -2766.7896   -61.018322    11939.984 
   17350    296.92129    201.15295   -3205.0984   -2763.4505   -43.634289    11942.514 
   17400    295.19525     201.1547   -3205.1568   -2766.0762    13.735545    11944.743 
   17450     290.7906    200.94549   -3198.1831   -2765.6541    136.21588    11946.706 
   17500    298.53921    201.17362   -3205.7872   -2761.7327   -163.76931    11948.443 
   17550    298.21303     201.0956   -3203.1867   -2759.6174   -151.03036    11949.842 
   17600    308.58486    201.40461   -3213.4868   -2754.4902    -309.6703    11950.849 
   17650    294.56306    200.91727   -3197.2425   -2759.1022    187.19955    11951.438 
   17700    283.57669    200.53416    -3184.472   -2762.6732    477.31139    11951.829 
   17750     298.9082    200.98168   -3199.3893    -2754.786    29.852436    11952.135 
   17800    299.29968    201.02925   -3200.9752   -2755.7896   -38.778306    11952.192 
   17850    312.53696    201.39773   -3213.2577   -2748.3827    -355.1402    11951.921 
   17900    295.12848     200.8506   -3195.0199   -2756.0387    210.52521    11951.219 
   17950    302.58736    201.03193   -3201.0645   -2750.9887      117.469    11950.278 
   18000    301.61039    201.06763   -3202.2544   -2753.6319    122.93871    11949.116 
   18050    299.91394    200.91646   -3197.2154   -2751.1161    265.24038    11947.728 
   18100    302.30243     200.8799   -3195.9967   -2746.3448    335.56469    11946.162 
   18150    309.96068    201.02893   -3200.9643   -2739.9213    142.89363    11944.463 
   18200    314.73594    201.15198   -3205.0661   -2736.9202    33.241114    11942.544 
   18250    316.39742    201.28727   -3209.5758   -2738.9586   -8.0395825    11940.309 
   18300    300.67544    200.80713    -3193.571    -2746.339    320.75703    11937.776 
   18350    304.33995    200.93926   -3197.9753   -2745.2926     322.8242     11935.07 
   18400    295.42795    200.66497   -3188.8324   -2749.4057    683.61051    11932.239 
   18450    291.92911     200.4773   -3182.5766   -2748.3542    890.92906    11929.447 
   18500    309.73164    201.00776   -3200.2587   -2739.5564    455.90917    11926.773 
   18550    302.67412    200.72949   -3190.9831   -2740.7783    711.08216    11924.068 
   18600    306.34839    200.82828   -3194.2761   -2738.6061    698.09552    11921.392 
   18650    309.46725    200.88004   -3196.0013   -2735.6922    706.77774     11918.76 
   18700    302.71247    200.71361   -3190.4536   -2740.1918    803.46714    11916.185 
   18750    311.94975    201.03004   -3201.0014   -2736.9998    525.53061    11913.685 
   18800    297.73982    200.61201   -3187.0671   -2744.2017    989.76924    11911.192 
   18850    304.00622    200.74682   -3191.5605   -2739.3743    882.78075    11908.865 
   18900    323.38104    201.23162   -3207.7208    -2726.716     406.3294    11906.647 
   18950    320.31096    201.17081   -3205.6936   -2729.2554    561.39661    11904.346 
   19000    309.97695    200.94745   -3198.2484   -2737.1812    894.02877    11902.006 
   19050    304.78046    205.73369   -3191.1229   -2737.7851    1117.7154    11899.806 
   19100      296.796     205.4945     -3183.15   -2741.6885    1389.0625    11897.901 
   19150      311.927    205.85977   -3195.3256   -2731.3578     984.4603    11896.396 
   19200    321.29204     206.1699   -3205.6632   -2727.7657    718.94353    11895.093 
   19250    298.26325    205.40397   -3180.1324   -2736.4884    1358.2642      11893.9 
   19300    305.42263    205.69622   -3189.8739   -2735.5809    1157.9609    11893.076 
   19350    302.27115     205.5634   -3185.4468   -2735.8414    1299.2754     11892.59 
   19400    306.99101    205.73887   -3191.2958   -2734.6699    1252.5358    11892.476 
   19450    311.23455    205.91275   -3197.0918    -2734.154    1066.2114     11892.73 
   19500    310.30072    205.88656   -3196.2187   -2734.6699    895.60676    11893.246 
   19550    303.29809    205.79369   -3193.1231   -2741.9902     929.1675    11893.966 
   19600    299.72516    205.59349   -3186.4496   -2740.6311    1066.5514    11894.909 
   19650    304.08055    205.80513   -3193.5044   -2741.2077    901.90583    11896.114 
   19700    320.84569    206.16113   -3205.3711   -2728.1374    443.62566    11897.511 
   19750    321.93856     206.1543   -3205.1433   -2726.2841    471.71631    11898.885 
   19800    305.25812    205.74735   -3191.5783   -2737.5299    924.84929    11900.244 
   19850    301.92384    205.76536   -3192.1785   -2743.0897    954.61715    11901.783 
   19900    294.63384    205.49981   -3183.3271   -2745.0816    1111.8881    11903.565 
   19950    295.44323    205.57127   -3185.7091   -2746.2597    1093.3959    11905.666 
   20000    295.40228    205.47353   -3182.4511   -2743.0626    1101.9258     11908.09 
   20050    305.58677    210.76623   -3192.2076   -2737.6705    746.12734    11910.815 
   20100    308.97042    210.87343   -3195.7811    -2736.211    596.41095    11913.703 
   20150    304.50802    210.73898   -3191.2992   -2738.3666     676.0545    11916.678 
   20200    311.98934    211.09777   -3203.2591   -2739.1986    400.03307    11919.728 
   20250    286.63665     210.3286   -3177.6201   -2751.2698    1044.3909    11922.824 
   20300    286.97278    210.36987   -3178.9955   -2752.1453    938.15634    11926.204 
   20350    295.30864    210.54874   -3184.9579   -2745.7087    698.21086    11929.844 
   20400    306.27627     210.9035   -3196.7835   -2741.2207    340.60267    11933.623 
   20450    311.94218     211.0726     -3202.42   -2738.4297     101.2921    11937.359 
   20500    304.04822     210.8528   -3195.0933   -2742.8446    230.52312    11940.934 
   20550    310.47704    211.07491   -3202.4971   -2740.6861    14.065254    11944.385 
   20600    290.55275    210.41187   -3180.3957   -2748.2205    564.91692     11947.66 
   20650    286.69847    210.33867   -3177.9556   -2751.5133     725.9939    11950.972 
   20700    295.38617    210.53721   -3184.5738   -2745.2092     509.0805    11954.432 
   20750    294.00646    210.47479    -3182.493   -2745.1807    463.06528    11957.954 
   20800    299.35881    210.66156   -3188.7185    -2743.445    228.64772    11961.477 
   20850    286.83761    210.27646   -3175.8819   -2749.2326    485.46049    11964.932 
   20900    288.78222    210.38613   -3179.5376   -2749.9959    384.78937    11968.401 
   20950    302.14199    210.81649    -3193.883   -2744.4697   -13.774001    11971.833 
   21000    292.30635    210.50802   -3183.6008   -2748.8173    237.56855    11975.072 
   21050    292.28286    215.53458   -3184.4859   -2749.7373    227.86816    11978.213 
   21100    297.89884     215.6772   -3189.2401   -2746.1381      15.6823    11981.247 
   21150    280.86067    215.10577   -3170.1922   -2752.4333    382.66428    11984.113 
   21200    294.06916    215.53678   -3184.5592   -2747.1536   -16.978655    11986.937 
   21250    292.48622    215.39792   -3179.9305   -2744.8794    24.345972    11989.573 
   21300    294.02707    215.37423    -3179.141    -2741.798   -16.594942    11991.998 
   21350    306.55497    215.75717   -3191.9058   -2735.9285   -355.57133    11994.177 
   21400    292.70318    215.37407   -3179.1355   -2743.7617    84.698748    11995.983 
   21450    283.82957    215.06053   -3168.6844   -2746.5095     432.7049    11997.592 
   21500    286.36522    215.11818   -3170.6059   -2744.6593     290.4902    11999.183 
   21550    280.27443    214.85048   -3161.6826   -2744.7956    399.40214    12000.726 
   21600    292.94585    215.28704   -3176.2346   -2740.4999    7.3211734    12002.221 
   21650    299.08489    215.38241   -3179.4138   -2734.5477   -157.82195    12003.506 
   21700    304.68386    215.49235   -3183.0783   -2729.8842   -220.54159     12004.46 
   21750    281.75234    214.91854   -3163.9513    -2744.866    387.46531    12005.101 
   21800    291.84199    215.12774   -3170.9246   -2736.8317    145.51299    12005.648 
   21850    283.54904    214.84981   -3161.6604   -2739.9027    386.53132    12006.068 
   21900    296.68511    215.35414   -3178.4715   -2737.1748   -7.8354966    12006.408 
   21950    283.12552     214.9399   -3164.6633   -2743.5355    375.63769    12006.552 
   22000    288.71382    215.13336   -3171.1121   -2741.6722    241.63407    12006.622 
   22050    289.66259    215.12825   -3170.9416   -2740.0905     157.5293    12006.589 
   22100    298.20619    215.24278   -3174.7593   -2731.2002    32.675587    12006.367 
   22150    295.02831    215.14699   -3171.5664   -2732.7342    215.32133    12005.935 
   22200    299.41358    215.32415   -3177.4717   -2732.1167    142.67013    12005.355 
   22250    298.16258    215.24564   -3174.8547   -2731.3604    217.96496    12004.616 
   22300    298.60566    215.14227   -3171.4089   -2727.2556    332.96157    12003.732 
   22350    296.70294    215.10631   -3170.2103   -2728.8872    443.74487    12002.754 
   22400    302.40035    215.17908    -3172.636   -2722.8384    325.57143    12001.739 
   22450    297.88122    215.10677   -3170.2255   -2727.1498    367.17075    12000.637 
   22500      306.367    215.24209   -3174.7364   -2719.0387    183.52361    11999.441 
   22550    301.72369    215.15516   -3171.8386   -2723.0475    341.72277    11998.093 
   22600    294.01761    214.88863   -3162.9542   -2725.6253    604.96898    11996.674 
   22650    302.47031    215.12253   -3170.7511   -2720.8494    432.85302    11995.284 
   22700    300.28151    215.05621   -3168.5405   -2721.8945    605.79814    11993.869 
   22750    293.37001    214.80021   -3160.0071   -2723.6414    875.54924    11992.516 
   22800     311.9285    215.29114   -3176.3715   -2712.4015    383.72753    11991.325 
   22850    303.17715    215.02335   -3167.4451    -2716.492    652.76887    11990.116 
   22900     313.1083    215.19757   -3173.2522   -2707.5273     500.5984    11988.938 
   22950    313.35016    215.27657   -3175.8857   -2709.8011    474.07851     11987.76 
   23000    306.76847    215.05706   -3168.5685   -2712.2736    682.47633    11986.573 
   23050    302.19213    209.95066   -3165.0219    -2715.534     851.6847    11985.459 
   23100    301.86151    209.90682   -3163.5606   -2714.5645    895.05589    11984.512 
   23150    312.10766    210.17001   -3172.3338   -2708.0973    564.24356    11983.741 
   23200       320.59    210.39621   -3179.8737   -2703.0203    244.83123    11982.976 
   23250    301.25125    209.82642   -3160.8808   -2712.7924    812.53671    11982.107 
   23300     303.2379    209.82974   -3160.9912   -2709.9478    780.65688    11981.334 
   23350    319.27363    210.28051   -3176.0171   -2701.1218    364.05878    11980.669 
   23400    304.12139    209.89327    -3163.109   -2710.7515    785.88978    11979.962 
   23450    320.60116    210.41355   -3180.4515   -2703.5816    406.64899     11979.32 
   23500    302.41078    209.72641   -3157.5471    -2707.734    998.20804    11978.679 
   23550    303.82524    209.83837   -3161.2792   -2709.3621    1018.2069    11978.222 
   23600    307.77394    209.97489   -3165.8297   -2708.0393     1008.409    11978.038 
   23650    312.72607    210.13588   -3171.1959   -2706.0396    880.40471    11978.115 
   23700    310.59202     209.9868   -3166.2265   -2704.2445    893.46664    11978.387 
   23750    306.75846     209.8929   -3163.0968   -2706.8168    941.09022    11978.854 
   23800    315.33037    210.17223   -3172.4076   -2703.3776    610.42685     11979.52 
   23850    306.52408    209.98955   -3166.3182   -2710.3869    722.07431     11980.28 
   23900    318.64434    210.32874   -3177.6247   -2703.6654    447.46806    11981.115 
   23950    301.80756    209.84803   -3161.6009    -2712.685    950.70027    11981.973 
   24000    310.03441     210.0524   -3168.4134   -2707.2607    758.66643    11983.035 
   24050    307.70538    215.01458   -3167.1526   -2709.4642    738.06728    11984.256 
   24100     311.1036    215.16603   -3172.2009   -2709.4579    634.78752    11985.606 
   24150    302.57864    214.96937   -3165.6455   -2715.5827    788.12582    11987.079 
   24200    314.63133    215.30712   -3176.9038   -2708.9136    401.85742    11988.673 
   24250    315.37528    215.30569   -3176.8564   -2707.7596    360.57065    11990.257 
   24300    300.92613     214.9478   -3164.9268    -2717.322    751.95307    11991.811 
   24350     307.7482    215.15003   -3171.6677   -2713.9156    568.48712     11993.48 
   24400    308.59304    215.10066   -3170.0218   -2711.0131    419.31774    11995.233 
   24450    307.40926    215.13965   -3171.3218   -2714.0738    302.46553     11996.96 
   24500    301.52661    214.98736   -3166.2452   -2717.7473    446.81232    11998.625 
   24550    296.98453    214.99033   -3166.3444   -2724.6024     469.5458    12000.286 
   24600    312.48837    215.48813   -3182.9376   -2718.1349    31.165091    12001.918 
   24650    289.80798    214.87675   -3162.5585   -2731.4911    573.04314    12003.391 
   24700    294.85947    214.99141   -3166.3805   -2727.7993    450.50429    12004.886 
   24750    297.35625    215.02631   -3167.5436   -2725.2487    423.98422      12006.4 
   24800    303.67589    215.25679   -3175.2265   -2723.5316    167.15016    12007.897 
   24850    293.77189    215.05726   -3168.5754    -2731.612    278.76369    12009.271 
   24900    293.63725    215.15066   -3171.6887   -2734.9256     221.2166    12010.532 
   24950    287.02567    215.00479   -3166.8265   -2739.8975    352.84761    12011.697 
   25000    296.72215    215.34098   -3178.0326   -2736.6809   -2.5298627    12012.787 
   25050    284.71549    219.95497   -3165.1658   -2741.6731    315.48532    12013.698 
   25100     292.2887    220.23514   -3174.5045   -2739.7472   -2.1205841    12014.513 
   25150    303.25877    220.72315   -3190.7718   -2739.6974   -459.96763    12015.078 
   25200    289.92277    220.31453   -3177.1511   -2745.9129   -67.838084    12015.208 
   25250    279.39661    220.02918   -3167.6393    -2752.058    265.39937    12015.087 
   25300     280.6837    220.13846   -3171.2821   -2753.7864     176.9273    12014.866 
   25350    286.52007    220.31061   -3177.0202   -2750.8433   -56.079838    12014.494 
   25400    283.83592    220.33463   -3177.8209   -2755.6365   -57.923678    12013.875 
   25450    276.02303    220.07558   -3169.1862   -2758.6228    120.47443    12013.008 
   25500    304.94612    221.01487   -3200.4958   -2746.9115   -744.43709    12011.891 
   25550    284.06972     220.3825   -3179.4167   -2756.8845    -152.9982    12010.226 
   25600    274.30587    220.11022   -3170.3408   -2762.3316    261.14934    12008.218 
   25650    282.56615    220.32918   -3177.6393   -2757.3436    102.09944    12006.078 
   25700     285.8659    220.49316   -3183.1054   -2757.9015   -49.198592    12003.746 
   25750    279.20186    220.23696   -3174.5654   -2759.2738     163.7885     12001.16 
   25800    289.99054     220.5612   -3185.3732   -2754.0343   -126.99202    11998.385 
   25850    280.60634    220.28518   -3176.1727   -2758.7921     154.5368    11995.322 
   25900    289.02895    220.63339   -3187.7795   -2757.8708   -67.944479    11992.053 
   25950    287.47014    220.54618   -3184.8727   -2757.2827   -53.231575    11988.519 
   26000    287.40746    220.48671   -3182.8902   -2755.3934    49.505147    11984.681 
   26050    270.29866    214.96179   -3165.3931   -2763.3443    551.36283    11980.638 
   26100    284.64184    215.48795   -3182.9318   -2759.5486    128.79645    11976.544 
   26150    289.75941    215.65416   -3188.4721   -2757.4769   -32.098015    11972.273 
   26200    297.43321    215.85484   -3195.1615   -2752.7521   -144.98064    11967.699 
   26250    291.83405    215.71624   -3190.5414   -2756.4603    173.61338    11962.776 
   26300    282.34289    215.45586   -3181.8619   -2761.8982    518.68047    11957.658 
   26350    285.60136    215.48427   -3182.8089   -2757.9985    489.05372    11952.502 
   26400    285.09857     215.3948   -3179.8267   -2755.7642    607.91655    11947.324 
   26450    296.15088    215.71017   -3190.3391   -2749.8371    332.34916    11942.164 
   26500    315.72624    216.38408   -3212.8028    -2743.184   -195.67835    11936.868 
   26550    304.38351     215.9097   -3196.9901   -2744.2427    308.27588    11931.217 
   26600    296.10406    215.69306   -3189.7688   -2749.3364    624.96059    11925.419 
   26650    292.79714    215.67931   -3189.3102   -2753.7966    715.75653    11919.646 
   26700    297.19799    215.74298   -3191.4325    -2749.373    642.09035     11913.94 
   26750    300.21188     215.8613   -3195.3766   -2748.8342    690.63097    11908.275 
   26800    291.43343    215.60893   -3186.9644   -2753.4792    1100.1786    11902.697 
   26850    291.86811    215.57252   -3185.7506   -2751.6189    1141.1413     11897.38 
   26900    307.33903    215.97941   -3199.3137   -2742.1702    787.60156    11892.339 
   26950    299.05044    215.84183   -3194.7275   -2749.9127     1070.048    11887.458 
   27000    301.41362      215.893   -3196.4332   -2748.1033    1073.7023    11882.832 
   27050     298.0339    210.79867   -3193.2891   -2749.9863    1160.2977    11878.479 
   27100    298.99444    210.85643   -3195.2143   -2750.4827    1120.6607    11874.426 
   27150    317.48364    211.39838   -3213.2793   -2741.0464    659.89542    11870.637 
   27200    296.45267    210.71792   -3190.5974   -2749.6465    1371.7103    11866.945 
   27250    295.36063    210.65462   -3188.4872   -2749.1607    1430.6191     11863.65 
   27300    303.06743    210.84381   -3194.7938    -2744.004    1284.1139    11860.812 
   27350    305.23753    210.93107   -3197.7024   -2743.6847    1312.1949    11858.355 
   27400    309.47589    211.11211   -3203.7371   -2743.4152    1120.3347    11856.287 
   27450    298.67438     210.7518   -3191.7266    -2747.471    1433.5412    11854.522 
   27500    296.38504    210.68639   -3189.5464   -2748.6961     1578.725    11853.215 
   27550    295.42587    210.62662    -3187.554   -2748.1304    1578.8625    11852.454 
   27600    308.06722    210.98923   -3199.6409   -2741.4142    1126.9099    11852.225 
   27650    307.08937    211.09947   -3203.3158   -2746.5436    1149.5215    11852.316 
   27700    295.69918    210.68329   -3189.4431    -2749.613    1610.0135    11852.765 
   27750    310.47456    211.21393   -3207.1309   -2745.3235    1188.8294    11853.751 
   27800    300.96553    210.80631   -3193.5437   -2745.8803    1443.2759     11855.13 
   27850    311.97868    211.18593   -3206.1977   -2742.1531    1038.2359    11856.946 
   27900    309.02037    211.16381   -3205.4602   -2745.8158    990.87135    11859.069 
   27950    303.50351    211.05085    -3201.695   -2750.2566    1115.6228    11861.465 
   28000    307.14533    211.09978    -3203.326   -2746.4706    1044.1241    11864.187 
   28050    314.19152    206.25579   -3208.5262   -2741.1901    779.22349    11867.168 
   28100    306.42248    206.06161   -3202.0536   -2746.2734    891.22571    11870.308 
   28150    312.06854    206.26831   -3208.9436   -2744.7653    720.63149    11873.629 
   28200      299.513    205.83551   -3194.5169    -2749.014    992.99589    11877.099 
   28250    302.68978     206.0351   -3201.1701    -2750.942    834.99854    11880.804 
   28300    289.00376    205.60799   -3186.9329   -2757.0617    1213.4365    11884.722 
   28350    298.16153    205.77642   -3192.5474   -2749.0547    956.95237    11888.986 
   28400     305.7627    206.01117   -3200.3722   -2745.5733    739.39916    11893.524 
   28450    303.81119    205.89088   -3196.3626   -2744.4665    885.94704    11898.226 
   28500    297.53687     205.8009   -3193.3632   -2750.7997    913.68539    11903.132 
   28550    302.51618    205.98009   -3199.3362   -2749.3663    573.02253    11908.258 
   28600    305.39411    206.08291   -3202.7638   -2748.5132    359.14986    11913.446 
   28650    305.13531    206.03536   -3201.1786    -2747.313    305.33585    11918.581 
   28700    295.83608    205.79456   -3193.1521   -2753.1184    493.81833     11923.64 
   28750    293.67382    205.68152   -3189.3841   -2752.5666    530.43809    11928.707 
   28800    294.07899     205.7606     -3192.02   -2754.5998    438.98005    11933.808 
   28850    305.21039    206.04903   -3201.6344    -2747.657    69.163432     11938.89 
   28900    301.22184    205.94989   -3198.3298   -2750.2851    69.429036    11943.791 
   28950    305.25397    206.16431   -3205.4772    -2751.435   -137.94452     11948.46 
   29000    298.73488     205.9772   -3199.2399   -2754.8944   -47.515714    11952.837 
   29050    294.12192     205.7745   -3192.4835   -2754.9994    108.07173    11956.932 
   29100    280.16107    205.38007   -3179.3357   -2762.6174    401.48922    11960.854 
   29150    305.29275    206.11276   -3203.7586   -2749.6588   -334.94186     11964.69 
   29200    299.75958    205.99456   -3199.8187   -2753.9491   -181.73313     11968.13 
   29250    291.49869    205.73062   -3191.0205   -2757.4383    95.008926    11971.216 
   29300    292.00847     205.7625   -3192.0834   -2757.7429   -7.7821517     11974.09 
   29350    299.17463    206.05739   -3201.9129   -2756.9133   -259.21775    11976.688 
   29400    283.15958    205.48093   -3182.6976   -2761.5192    220.85114    11978.948 
   29450    282.92683    205.51649   -3183.8829   -2763.0507    222.57778    11981.038 
   29500    297.10152    205.84138   -3194.7127   -2752.7967   -256.59444    11982.974 
   29550    297.99795     205.9616   -3198.7199   -2755.4705   -422.27077     11984.54 
   29600    294.00834    205.93687   -3197.8956   -2760.5804   -409.57445    11985.613 
   29650    292.06251    205.93948   -3197.9827   -2763.5619   -367.28703    11986.209 
   29700    286.08576    205.77909   -3192.6364   -2767.1055   -214.54087    11986.357 
   29750    284.49265    205.67329   -3189.1097   -2765.9484   -149.21402     11986.11 
   29800    278.60178    205.56439   -3185.4796   -2771.0806    26.165227    11985.526 
   29850    299.83229    206.16203   -3205.4009   -2759.4231   -495.06196    11984.651 
   29900    296.89686    206.03609    -3201.203   -2759.5914   -358.22076     11983.27 
   29950    287.26557    205.70149   -3190.0496   -2762.7638    5.7572833    11981.422 
   30000     292.8051     205.8858   -3196.1932   -2760.6678   -193.97973    11979.262 
   30050    295.47685    205.98982   -3199.6606   -2760.1612   -373.93196    11976.728 
   30100    290.32952    205.87013   -3195.6709   -2763.8278   -235.11082    11973.729 
   30150    283.05832    205.76297   -3192.0991   -2771.0713   -38.735963    11970.326 
   30200    295.56146    206.08254   -3202.7512   -2763.1259   -261.08797    11966.587 
   30250    298.39793    206.18076   -3206.0255   -2762.1812   -293.17336    11962.428 
   30300    287.16313    205.76842   -3192.2806   -2765.1472    66.320077    11957.842 
   30350     297.4775    206.15628   -3205.2092    -2762.734   -146.59343    11952.963 
   30400    288.90921    205.84699   -3194.8997   -2765.1691    197.33034    11947.739 
   30450    286.11099     205.7355   -3191.1834    -2765.615    359.82991    11942.303 
   30500    295.07185    206.04143   -3201.3812   -2762.4841    132.57803    11936.753 
   30550    287.00455    205.89148   -3196.3826   -2769.4851     391.8534    11930.993 
   30600    286.51512     205.7896   -3192.9866   -2766.8171    466.72854    11925.133 
   30650    289.02876    205.85214   -3195.0714   -2765.1631     457.8971    11919.225 
   30700     301.3946    206.20666   -3206.8887   -2758.5871    264.90991    11913.239 
   30750    300.01011    206.18622   -3206.2074   -2759.9651    395.60117    11907.113 
   30800    292.78377     205.9737   -3199.1233   -2763.6296    736.68521    11900.901 
   30850    300.19295    206.18408   -3206.1359   -2759.6216    626.06118    11894.747 
   30900    293.92106    206.00931   -3200.3102   -2763.1249    836.96356     11888.65 
   30950    296.10355    206.02114   -3200.7046    -2760.273    942.21623    11882.669 
   31000    291.30355    205.76225   -3192.0749   -2758.7829    1245.5045    11876.891 
   31050    295.48327    205.89824    -3196.608    -2757.099    1258.6558    11871.448 
   31100    300.34022    206.07312   -3202.4372   -2755.7039    1127.8601    11866.355 
   31150    313.09038    206.43481   -3214.4937   -2748.7955    770.35736    11861.524 
   31200    302.01092    206.10552   -3203.5173   -2754.2989    1158.3142    11856.826 
   31250    297.75128     205.9267   -3197.5567   -2754.6743    1420.7167     11852.42 
   31300    314.97694    206.43727   -3214.5758   -2746.0714    980.71662     11848.41 
   31350    305.13867    206.14654   -3204.8848   -2751.0142    1382.9516    11844.649 
   31400    306.76197    206.09749   -3203.2498   -2746.9646    1477.9205    11841.294 
   31450    322.47568    206.60781   -3220.2605   -2740.6023    909.65774    11838.372 
   31500    320.36792     206.5188   -3217.2934   -2740.7704    975.21738    11835.641 
   31550    297.97614    205.82247   -3194.0825   -2750.8656    1730.4909    11833.143 
   31600    307.48733    206.10093   -3203.3644   -2746.0003    1537.4935    11831.191 
   31650    319.08933    206.54721   -3218.2402    -2743.619    1195.0613    11829.727 
   31700    304.60692    206.01028   -3200.3428   -2747.2631    1623.3359    11828.628 
   31750    320.85818    206.50065   -3216.6883   -2739.4361    1185.6237    11828.023 
   31800    309.15229    206.23382   -3207.7939   -2747.9533    1423.9173    11827.789 
   31850    306.43985    206.11492   -3203.8308   -2748.0247     1502.601    11827.977 
   31900    324.03732    206.57352   -3219.1174   -2737.1364    1128.9355    11828.622 
   31950    308.10769    206.09307   -3203.1023   -2744.8154     1597.115    11829.595 
   32000     285.6125    205.35585   -3178.5285   -2753.7015    2227.0111    11831.125 
   32050    304.95027    210.99053   -3199.6844    -2746.094    1648.1662    11833.492 
   32100    317.85969    211.35005   -3211.6683   -2738.8761    1249.4667    11836.458 
   32150    297.18773    210.76392   -3192.1306   -2750.0863    1716.3623    11839.858 
   32200    305.95087    210.93703   -3197.9011   -2742.8224    1442.6038     11843.84 
   32250    298.41502    210.72533   -3190.8442   -2746.9745    1534.2966    11848.343 
   32300    295.87432    210.59585   -3186.5283   -2746.4376    1517.1028     11853.39 
   32350    307.82485    211.04194   -3201.3978   -2743.5317    1101.1933    11858.967 
   32400    303.25849    210.92701   -3197.5671    -2746.493    1263.8205    11864.916 
   32450    311.82191     211.2095   -3206.9832   -2743.1717    994.07579    11871.246 
   32500    307.46533    211.06397   -3202.1322   -2744.8008    1016.9673    11877.861 
   32550    288.72817    210.44214   -3181.4048   -2751.9435    1433.0274    11884.792 
   32600    309.05201    211.10299   -3203.4331   -2743.7417    745.13921    11892.172 
   32650     293.1628    210.60066   -3186.6887   -2750.6312    1093.9731    11899.785 
   32700    308.08687    211.01719   -3200.5729   -2742.3171    665.61956    11907.691 
   32750    305.75051    210.97887   -3199.2956   -2744.5149    573.03599    11915.741 
   32800    296.14172    210.71003   -3190.3342   -2749.8459    691.99905    11923.866 
   32850    285.81639    210.40702   -3180.2341   -2755.1039    832.99286     11932.14 
   32900    294.60898    210.69671   -3189.8905    -2751.682    451.27328    11940.601 
   32950    305.24518     210.9043   -3196.8101    -2742.781    60.610517    11949.069 
   33000    288.64917    210.40077   -3180.0258    -2750.682     428.5896    11957.386 
   33050    297.97348    215.65654   -3188.5512   -2745.3382    176.32624    11965.668 
   33100    295.68283    215.67648   -3189.2159   -2749.4101    144.91824    11973.848 
   33150    292.90496    215.46356   -3182.1188   -2746.4448    195.43914    11981.899 
   33200     286.3329    215.26201   -3175.4002   -2749.5018    301.82765    11989.839 
   33250    294.31349    215.56842   -3185.6138   -2747.8448   -68.441429    11997.692 
   33300    286.53565    215.37122   -3179.0407   -2752.8406    26.589852    12005.321 
   33350    274.12804    214.94692   -3164.8974   -2757.1527    305.88527    12012.776 
   33400    288.18331    215.32467   -3177.4891   -2748.8382    -189.2024     12020.16 
   33450    287.79262    215.18886   -3172.9621   -2744.8924   -211.63703    12027.255 
   33500    291.67553    215.28198   -3176.0659   -2742.2206   -289.78202    12033.998 
   33550    282.26248    214.92009    -3164.003    -2744.159   -56.741827    12040.385 
   33600    280.75139    214.85943   -3161.9812   -2744.3847   -107.05484    12046.501 
   33650    285.40173     215.1023   -3170.0766   -2745.5632   -367.10472    12052.342 
   33700     285.8878    215.02936   -3167.6452   -2742.4088   -449.98553    12057.793 
   33750    296.58849    215.29107   -3176.3689    -2735.216    -728.2417    12062.753 
   33800    291.22445    215.00851   -3166.9503    -2733.776    -538.5299     12067.12 
   33850    288.90878    214.85779   -3161.9264   -2732.1964   -446.99361    12070.957 
   33900    286.84838    214.75634   -3158.5447   -2731.8795   -401.47321    12074.326 
   33950    298.86671    215.18795   -3172.9316     -2728.39   -717.55926    12077.222 
   34000    294.08845    214.98954    -3166.318   -2728.8837   -524.22099    12079.522 
   34050    295.10919    209.88624   -3162.8748   -2723.9222   -468.03164    12081.278 
   34100    290.67491    209.70225   -3156.7417   -2724.3848   -324.76717    12082.533 
   34150    287.37805    209.61712   -3153.9038   -2726.4508   -188.78876    12083.343 
   34200    292.67087    209.70054   -3156.6847    -2721.359   -268.45816     12083.78 
   34250    289.70656    209.60048   -3153.3493   -2722.4328   -259.26567    12083.824 
   34300    300.48143    209.89403   -3163.1344    -2716.191   -530.48313     12083.43 
   34350    285.15713    209.36002    -3145.334   -2721.1844   -8.6096578    12082.557 
   34400    307.07763    209.99522   -3166.5074   -2709.7527   -477.41788    12081.345 
   34450    308.87019    210.02049   -3167.3497   -2707.9287   -425.34887    12079.629 
   34500    300.51955    209.63497    -3154.499   -2707.4989    -96.26433    12077.434 
   34550     307.2085    209.86782   -3162.2606   -2705.3112   -217.82607    12074.872 
   34600    309.59347    209.95814   -3165.2712   -2704.7744   -207.04672    12071.919 
   34650    301.79478    209.65949   -3155.3163   -2706.4195      118.186     12068.59 
   34700    295.88693    209.44275   -3148.0918   -2707.9824    390.27676    12065.037 
   34750    313.84642    210.03093   -3167.6977   -2700.8749    33.461646    12061.364 
   34800    298.45451    209.52227   -3150.7423   -2706.8138    640.07875    12057.474 
   34850    299.30708    209.48688   -3149.5627   -2704.3661    713.09299    12053.615 
   34900    310.39576    209.79543   -3159.8475   -2698.1573    378.86713    12049.842 
   34950    311.07735    209.72721   -3157.5738   -2694.8698    399.04866    12045.987 
   35000    310.59191    209.67268    -3155.756    -2693.774    420.47478    12042.048 
   35050      311.306    209.77239   -3159.0796   -2696.0355    353.14235    12038.049 
   35100    294.99676    209.21769   -3140.5896   -2701.8043    840.83574     12033.97 
   35150    302.39544    209.45273   -3148.4245   -2698.6342    709.99497    12030.017 
   35200     317.2892    209.98613   -3166.2042   -2694.2606    302.39696    12026.148 
   35250    314.42797    209.94893   -3164.9643   -2697.2765    458.17478    12022.168 
   35300    308.21431    209.78144   -3159.3814    -2700.936    696.94208    12018.154 
   35350    314.48644     209.8597   -3161.9899   -2694.2152    630.82231    12014.191 
   35400    321.78392    210.07493   -3169.1642    -2690.535    460.63014    12010.264 
   35450    320.06547    209.95703   -3165.2344   -2689.1613    571.11465    12006.309 
   35500    305.61496    209.65712   -3155.2374   -2700.6583    940.94634    12002.375 
   35550    315.59886    209.90034   -3163.3448   -2693.9154    752.69518    11998.601 
   35600    301.37906    209.51171   -3150.3902   -2702.1117    1106.2948    11994.979 
   35650    322.84515    210.15921   -3171.9737    -2691.766    546.85007    11991.597 
   35700    313.84998    209.89079   -3163.0263   -2696.1982    780.79675    11988.261 
   35750    310.13289    209.74515   -3158.1717   -2696.8725    924.43315    11985.046 
   35800    315.32746    210.00644   -3166.8814   -2697.8557    806.45282    11982.013 
   35850    297.84499    209.45421   -3148.4738   -2705.4519    1337.8358    11979.165 
   35900    312.91393    209.91788   -3163.9295   -2698.4937    980.06951    11976.684 
   35950    318.05459    210.24842   -3174.9474   -2701.8653      745.492    11974.442 
   36000    313.83591    210.07645   -3169.2149   -2702.4078    849.95909    11972.321 
   36050    309.33618    209.99181   -3166.3935   -2706.2794    984.10145    11970.367 
   36100    321.15652    210.38838   -3179.6126   -2701.9166    645.78483    11968.607 
   36150    318.38766    210.39918   -3179.9726    -2706.395    727.98818    11966.912 
   36200    302.22551    209.89371   -3163.1238   -2713.5863    1204.9392     11965.35 
   36250    301.06136    209.86062   -3162.0207   -2714.2147    1206.2134    11964.121 
   36300    300.48491    209.93211   -3164.4036   -2717.4551    1167.0109    11963.268 
   36350    311.16651    210.23421   -3174.4738   -2711.6372    910.55472     11962.74 
   36400    313.31621    210.33094   -3177.6981   -2711.6639    849.60382    11962.416 
   36450    310.81257    210.37022   -3179.0075   -2716.6973    818.74236    11962.274 
   36500     316.7628    210.47026   -3182.3419   -2711.1813    620.45296    11962.289 
   36550    298.79754    209.99765   -3166.5882   -2722.1495    1021.8667    11962.369 
   36600    285.80021    209.65364   -3155.1215   -2730.0153    1371.3052    11962.703 
   36650    298.58184    210.01327   -3167.1091   -2722.9912    1035.2271    11963.477 
   36700    303.67738    210.26353   -3175.4508   -2723.7538     835.7241    11964.535 
   36750    298.46962    210.13136   -3171.0455   -2727.0945    942.89179    11965.789 
   36800    310.53477    210.47156   -3182.3854   -2720.4885    556.42687    11967.256 
   36850    306.14608    210.36906   -3178.9686   -2723.5995    571.53705    11968.765 
   36900    304.18076      210.345   -3178.1666   -2725.7207    574.80179    11970.314 
   36950    299.04873    210.29271   -3176.4237   -2731.6114    747.20708     11971.91 
   37000    288.74032    209.94997   -3164.9991   -2735.5198    1065.9499    11973.648 
   37050     301.9971    205.40633   -3180.2111   -2731.0133    536.71803    11975.634 
   37100    311.44438    205.69487   -3189.8291   -2726.5792    159.67638    11977.634 
   37150    306.17786    205.53388   -3184.4627   -2729.0463    257.92564    11979.459 
   37200    310.25477    205.64654   -3188.2181   -2726.7377     109.1269     11981.12 
   37250    309.29056    205.64909   -3188.3031   -2728.2568    22.768321    11982.559 
   37300    297.30481       205.31        -3177   -2734.7816     358.2272    11983.744 
   37350    289.93932    205.12592   -3170.8639   -2739.6012    532.03331    11984.833 
   37400    310.17551    205.70467   -3190.1557   -2728.7932   -51.391141    11985.865 
   37450    288.48629    205.19508   -3173.1694   -2744.0679    425.22523    11986.648 
   37500    292.98596    205.32898   -3177.6328   -2741.8384    296.76121    11987.332 
   37550    300.68852    205.58676   -3186.2255   -2738.9741    139.92736    11987.912 
   37600    295.99865    205.35086   -3178.3621   -2738.0865     235.8636    11988.286 
   37650    298.06022    205.46965   -3182.3218   -2738.9798    86.021311    11988.494 
   37700     302.9087    205.53086    -3184.362   -2733.8082   -11.050122    11988.484 
   37750    304.88702    205.58713   -3186.2376   -2732.7412    69.831771     11988.19 
   37800    295.43078    205.26617   -3175.5391   -2736.1082    430.52025    11987.662 
   37850    288.70861    205.12974   -3170.9912    -2741.559    635.37332    11987.078 
   37900    293.95679    205.29745   -3176.5816   -2739.3432    432.90958    11986.539 
   37950    314.61797    205.99971   -3199.9905   -2732.0201   -291.27764      11985.9 
   38000    299.53404    205.53447   -3184.4824   -2738.9482   -5.7133843    11984.885 
   38050    304.56463    210.69637    -3189.879   -2736.8622   -68.738181    11983.571 
   38100    297.09441    210.48247    -3182.749   -2740.8436    222.20146    11981.967 
   38150    290.62558    210.36238   -3178.7461   -2746.4626    417.78197    11980.181 
   38200    297.33625    210.53431   -3184.4771    -2742.212    251.27957    11978.353 
   38250    298.26319    210.55253   -3185.0842   -2741.4403    211.65374    11976.408 
   38300    295.19706    210.47668   -3182.5558   -2743.4726    287.93749    11974.297 
   38350    306.73133    210.79072    -3193.024   -2736.7844    -15.17396    11972.037 
   38400    300.08778    210.61074   -3187.0247   -2740.6668    198.13933    11969.526 
   38450    301.77268    210.65204   -3188.4014   -2739.5374    260.06878    11966.837 
   38500    299.59539    210.53683   -3184.5609   -2738.9355    457.61655    11964.014 
   38550    292.77556    210.33893   -3177.9643   -2742.4828    712.24816    11961.158 
   38600    290.63403    210.26213   -3175.4043   -2743.1082    654.50857    11958.407 
   38650    302.91622    210.62855   -3187.6184   -2737.0535    325.31586    11955.694 
   38700    299.83452    210.61257   -3187.0855   -2741.1044    448.43465    11952.906 
   38750    304.46089    210.80274   -3193.4246   -2740.5621    328.10502    11950.067 
   38800    288.98817    210.39468   -3179.8228   -2749.9748     773.4461     11947.15 
   38850    283.55122    210.18874   -3172.9579    -2751.197    980.52747    11944.362 
   38900    303.85529    210.80692   -3193.5639   -2741.6022     456.3567    11941.774 
   38950    296.14259     210.5084   -3183.6134   -2743.1237    720.67165    11939.195 
   39000    298.66682     210.6013   -3186.7101   -2742.4659    713.05063     11936.69 
   39050     282.4243    215.16862   -3172.2873   -2752.2026    1116.1002    11934.335 
   39100    292.13587    215.43906   -3181.3019   -2746.7719    862.21815    11932.268 
   39150    310.93812    216.00884   -3200.2947   -2737.7978    310.13843    11930.379 
   39200    292.54705    215.37082   -3179.0272   -2743.8857     842.8537    11928.456 
   39250    290.16248    215.34429   -3178.1431   -2746.5484    976.05038    11926.685 
   39300    302.69619    215.70797   -3190.2657    -2740.028    660.87675    11925.156 
   39350    300.81809    215.73209   -3191.0695   -2743.6254    710.96512    11923.729 
   39400    289.01998    215.24881   -3174.9604   -2745.0651    1220.6424    11922.445 
   39450    289.98088    215.31141   -3177.0469   -2745.7224    1301.7842    11921.531 
   39500    295.09244    215.45011   -3181.6704   -2742.7427    1150.1523    11921.042 
   39550    298.13797    215.45896   -3181.9655   -2738.5078    1065.4619      11920.9 
   39600    288.60419      215.234   -3174.4666   -2745.1897     1317.819    11921.096 
   39650    299.01852    215.50871   -3183.6235   -2738.8561    1080.6576    11921.712 
   39700    301.59893    215.59877   -3186.6257   -2738.0201    992.88375    11922.658 
   39750    310.50115    215.85258   -3195.0861   -2733.2392    663.83009    11923.854 
   39800    301.95452    215.59484   -3186.4947   -2737.3602    873.90355    11925.174 
   39850    294.81017    215.26502   -3175.5007   -2736.9929    1121.6222    11926.702 
   39900    296.00589    215.39908   -3179.9693    -2739.683    960.78106    11928.548 
   39950    309.69009    215.82613   -3194.2045   -2733.5639     582.3003    11930.647 
   40000    297.44869    215.37884   -3179.2946   -2736.8622    987.93749    11932.865 
   40050    301.48571    210.54598    -3184.866   -2736.4288    961.43278    11935.314 
   40100    293.23493    210.35939   -3178.6463   -2742.4815    1180.1648    11938.041 
   40150    289.37333    210.28601   -3176.2003   -2745.7794    1209.2135    11941.115 
   40200    302.70385    210.65811   -3188.6037   -2738.3546    674.91159    11944.557 
   40250    297.14524    210.40121   -3180.0402   -2738.0592    716.55418    11948.147 
   40300    300.74556    210.52982   -3184.3273   -2736.9911    578.64201    11951.839 
   40350    308.34717    210.67126    -3189.042    -2730.399    410.27624    11955.597 
   40400    313.83741    210.79782   -3193.2608   -2726.4514     251.1152    11959.315 
   40450    306.01527    210.57077   -3185.6925   -2730.5179     344.9325    11962.932 
   40500    302.76233    210.45985    -3181.995    -2731.659    414.98434    11966.465 
   40550    291.03889     210.0799     -3169.33   -2736.4318    774.56084    11969.991 
   40600    310.68258    210.64681   -3188.2269   -2726.1101    284.58094    11973.623 
   40650    310.94575     210.5896   -3186.3202   -2723.8119     282.1568    11977.186 
   40700    308.63868    210.50652   -3183.5506    -2724.474    350.81985    11980.625 
   40750    284.20723    209.69714   -3156.5715   -2733.8348     1079.758    11984.031 
   40800    276.98309     209.4631     -3148.77   -2736.7786    1279.7582    11987.726 
   40850    283.48624    209.61559   -3153.8531   -2732.1888    995.16682    11991.863 
   40900    310.88671    210.47317   -3182.4389   -2720.0185    195.85561    11996.259 
   40950    298.01227    209.94081   -3164.6938   -2721.4231    636.82263    12000.573 
   41000    311.58831    210.24708   -3174.9027   -2711.4387    335.65068    12004.929 
   41050    321.48266    205.43376   -3181.1253   -2702.9442    50.347474    12009.217 
   41100      310.052    205.07322   -3169.1074   -2707.9285    330.14029    12013.275 
   41150    313.36069    205.18272   -3172.7572   -2706.6569    214.80472    12017.201 
   41200    314.44583    205.16904   -3172.3012   -2704.5868     162.6681    12020.968 
   41250    310.63644    204.96397   -3165.4658   -2703.4176    190.68907    12024.541 
   41300    311.37698    204.94423   -3164.8078   -2701.6581    109.16913     12027.93 
   41350    315.66626    205.04124   -3168.0414   -2698.5117    5.1975057    12031.095 
   41400    319.52307    205.09404   -3169.8014   -2694.5351   -76.714476    12033.978 
   41450    327.99092    205.23943   -3174.6477    -2686.786   -186.27402     12036.51 
   41500    312.53088    204.69631   -3156.5437   -2691.6777    394.36571    12038.702 
   41550    308.14999    204.53204   -3151.0681   -2692.7184    561.75514    12040.793 
   41600    317.23555    204.82778   -3160.9259    -2689.062    278.20457    12042.875 
   41650    303.11131    204.38042   -3146.0141    -2695.159    670.76643    12044.852 
   41700    308.53999    204.55292   -3151.7641   -2692.8343    590.01023    12046.872 
   41750    322.47221    204.90964   -3163.6546   -2684.0016    331.63939    12048.923 
   41800    312.85281      204.617   -3153.9001   -2688.5552    668.17599    12050.886 
   41850    331.00235    205.04396   -3168.1319    -2675.791    146.29818    12052.855 
   41900    322.42231     204.7084   -3156.9467    -2677.368    279.93341    12054.648 
   41950    322.17872    204.69969   -3156.6563   -2677.4398    299.27926    12056.272 
   42000    311.22451    204.34146   -3144.7153   -2681.7924    594.54989    12057.789 
   42050    333.16407    210.03491   -3167.8305   -2672.2742     16.32564    12059.281 
   42100    327.95818     209.7523   -3158.4101   -2670.5971    196.08946    12060.547 
   42150    319.51912    209.70171   -3156.7236   -2681.4631     309.3217    12061.621 
   42200    319.66036    209.68489   -3156.1631   -2680.6925    268.43471    12062.578 
   42250    314.16699    209.46806   -3148.9354   -2681.6358    465.07952     12063.41 
   42300      314.826    209.51234   -3150.4114   -2682.1316    466.16942    12064.189 
   42350    307.54995    209.25256    -3141.752   -2684.2948    671.12587    12064.945 
   42400    302.41682    209.12325   -3137.4416   -2687.6195    753.85264    12065.781 
   42450    316.25515    209.56932   -3152.3106    -2681.905     234.3191    12066.721 
   42500    314.67914    209.60509    -3153.503   -2685.4416    215.65679    12067.522 
   42550     301.9227    209.27808   -3142.6028   -2693.5156    599.13161    12068.191 
   42600    315.59336    209.66448   -3155.4827   -2686.0615    309.52549    12068.881 
   42650     307.4289    209.35632   -3145.2106   -2687.9334    545.53731      12069.5 
   42700    330.04644    209.98675   -3166.2249   -2675.3058   -54.274185    12070.069 
   42750    326.12094    209.98707   -3166.2357   -2681.1555   -5.4946863    12070.364 
   42800    311.97114    209.60882   -3153.6274    -2689.594    321.94112    12070.374 
   42850    303.34694    209.39547   -3146.5155   -2695.3099    405.62058    12070.255 
   42900    306.30652    209.47274   -3149.0912   -2693.4835    272.78629    12070.059 
   42950    295.32815    209.11549   -3137.1829   -2697.9047    630.02334    12069.758 
   43000    311.13408      209.592   -3153.0666   -2690.2782    163.72157    12069.468 
   43050    335.44799    210.31142   -3177.0472   -2678.0937   -529.63728    12068.965 
   43100     312.0152    209.69797   -3156.5991   -2692.5002    76.462183    12067.956 
   43150    300.90085    209.50038   -3150.0125   -2702.4453    304.15043     12066.67 
   43200    302.85961    209.61839   -3153.9464   -2703.4657    154.97921     12065.27 
   43250    318.52665    210.08683   -3169.5612   -2695.7769   -243.38539     12063.65 
   43300    297.90098    209.43893   -3147.9642   -2704.8591    318.92939    12061.674 
   43350    310.47142    209.89607   -3163.2023   -2701.3996   -97.060416    12059.517 
   43400    307.09155    209.78194   -3159.3981   -2702.6227    28.222653    12057.055 
   43450    300.05515    209.63477   -3154.4924   -2708.1832    303.46775    12054.328 
   43500     302.4264    209.72813   -3157.6042   -2707.7678    248.21051    12051.466 
   43550    310.84482    210.05734   -3168.5779   -2706.2198   -50.877557    12048.426 
   43600    291.87941    209.49134   -3149.7113   -2715.5628    388.51627    12045.118 
   43650    312.43955    210.18015   -3172.6717   -2707.9415   -126.79862    12041.658 
   43700    294.48868    209.67107   -3155.7023   -2717.6727    390.84796    12037.909 
   43750    310.02695      210.161   -3172.0333   -2710.8917     17.30845    12034.017 
   43800    305.61437    210.07245   -3169.0816   -2714.5033    93.187719    12029.882 
   43850    299.14834    209.79516   -3159.8388   -2714.8783    291.42465    12025.504 
   43900    303.69311     209.9238   -3164.1266   -2712.4061    259.70223    12020.967 
   43950     298.7894    209.81058   -3160.3528   -2715.9262    486.59976    12016.298 
   44000    306.05417    210.11158   -3170.3861   -2715.1537    288.03758    12011.578 
[...]
   89400    299.64686    206.28015   -3209.3384   -2763.6364    454.90702    11890.828 
   89450    296.58891    206.19693   -3206.5643   -2765.4108    510.39382    11894.126 
   89500    289.58686    206.05629   -3201.8762   -2771.1377     704.9799    11897.423 
   89550    296.71386    206.21825    -3207.275   -2765.9356    498.92471    11900.792 
   89600    288.87278    205.88557   -3196.1858   -2766.5094    692.44839    11904.179 
   89650    299.56213    206.21906    -3207.302    -2761.726     364.1009    11907.628 
   89700    308.82982     206.5131   -3217.1035   -2757.7425    63.448446    11910.977 
   89750    293.24849    206.07816   -3202.6053   -2766.4204     426.7181    11914.115 
   89800    288.41124    205.93342   -3197.7807   -2768.7909    528.89196    11917.196 
   89850    284.58556       205.74   -3191.3332   -2768.0338       626.22    11920.278 
   89900    284.13511    205.66829   -3188.9431   -2766.3137    680.65515    11923.437 
   89950    307.70708    206.29889   -3209.9629   -2752.2719    105.37079    11926.639 
   90000    300.35681    206.06979   -3202.3263   -2755.5683    203.37515     11929.66 
   90050    302.37686    201.20223   -3206.7411   -2756.9784    33.643572    11932.491 
   90100    293.07305    200.91768   -3197.2559   -2761.3319    260.82927    11935.078 
   90150    286.79649    200.68055   -3189.3517   -2762.7637    470.27651    11937.518 
   90200    291.47217     200.8322   -3194.4068    -2760.864    328.20315     11939.91 
   90250     306.8031    201.21888    -3207.296   -2750.9497    -60.44103    11942.165 
   90300    291.88302    200.91073   -3197.0244   -2762.8706     336.4315    11944.155 
   90350    291.22972    200.86336   -3195.4452    -2762.263    328.39999    11946.009 
   90400    293.88978     200.9061   -3196.8699   -2759.7312    135.60038    11947.751 
   90450    309.61508    201.27567    -3209.189     -2748.66    -258.8978    11949.254 
   90500      292.538    200.74841   -3191.6136   -2756.4855    230.12894    11950.385 
   90550    294.62226    200.85298   -3195.0994   -2756.8711    250.47711    11951.307 
   90600      288.541    200.66598   -3188.8659   -2759.6831    467.98131    11952.098 
   90650    305.38606    201.19382   -3206.4606    -2752.222   -26.067565    11952.805 
   90700    302.83514    201.13471   -3204.4902   -2754.0459   -21.420568     11953.23 
   90750    290.80563    200.79273   -3193.0911   -2760.5397    285.69429    11953.369 
   90800    287.73493    200.66674   -3188.8914   -2760.9075    389.97223    11953.358 
   90850    299.05123    200.92553   -3197.5175   -2752.7015    90.795295     11953.25 
   90900    305.75857    201.12497   -3204.1658   -2749.3731   -142.28376    11952.906 
   90950    306.88282    201.18991   -3206.3303   -2749.8654   -214.60617    11952.187 
   91000    298.15948    200.87873   -3195.9578   -2752.4681    91.434971     11951.07 
   91050    286.78586    205.49611   -3183.2037   -2756.6315    531.22828    11949.716 
   91100    297.20611    205.84936   -3194.9787   -2752.9071    248.46481    11948.331 
   91150    304.83695    206.06532   -3202.1774   -2748.7556    29.717841    11946.811 
   91200    286.78061    205.53054   -3184.3514   -2757.7869     596.0994    11945.058 
   91250     288.7517    205.56435   -3185.4782   -2755.9819    603.93957    11943.303 
   91300    311.87295    206.19657   -3206.5523   -2742.6649    39.455487    11941.563 
   91350    303.94149    205.95297   -3198.4324   -2746.3425    324.50266    11939.619 
   91400    297.98875     205.7948     -3193.16   -2749.9244     571.3781    11937.543 
   91450    289.42288    205.55636   -3185.2119   -2754.7173    777.18673    11935.488 
   91500    302.47118    205.92667   -3197.5556   -2747.6526    408.99619    11933.526 
   91550    302.33727    205.90088   -3196.6959   -2746.9922    423.91946    11931.538 
   91600    298.68679    205.79094   -3193.0313   -2748.7574    561.87712    11929.487 
   91650    292.66903    205.58891   -3186.2971   -2750.9741    778.31406    11927.444 
   91700    300.05868    205.82726   -3194.2421   -2747.9276    610.41691    11925.514 
   91750    305.37748    205.92271   -3197.4235   -2743.1977    558.25353    11923.633 
   91800    312.56106    206.11907    -3203.969   -2739.0581    506.29247    11921.754 
   91850    295.51956    205.58268   -3186.0892   -2746.5263    995.02219    11919.891 
   91900     312.3451    206.09864   -3203.2881   -2738.6985     506.2696      11918.2 
   91950    304.74605    205.81612   -3193.8707   -2740.5841    718.15303    11916.518 
   92000    293.92878    205.41669   -3180.5563   -2743.3595    1083.1295    11914.939 
   92050    303.76407    210.76088   -3192.0292   -2740.2032    842.35856    11913.623 
   92100    299.77102    210.59291   -3186.4304   -2740.5437     1072.345    11912.496 
   92150    301.56595    210.68124   -3189.3747   -2740.8182    1064.2098    11911.654 
   92200    314.57298     211.0456   -3201.5199   -2733.6164    705.84353    11911.069 
   92250    304.46112    210.76138    -3192.046   -2739.1832    949.97229    11910.596 
   92300    296.34022    210.54874   -3184.9581   -2744.1744    1170.3397    11910.366 
   92350     303.8395     210.7534   -3191.7801   -2739.8419     935.1832    11910.469 
   92400    298.03976    210.51727   -3183.9089   -2740.5973    1130.2207    11910.828 
   92450    301.62736    210.61029   -3187.0098   -2738.3619    1067.2676    11911.497 
   92500    312.05012     210.9838   -3199.4599    -2735.309    766.63823    11912.446 
   92550    312.68249    211.03916   -3201.3052   -2736.2137    732.33332    11913.528 
   92600    292.26383    210.34207   -3178.0689   -2743.3486    1335.2559    11914.755 
   92650    302.88532    210.53781   -3184.5936   -2734.0747    1073.9689    11916.377 
   92700    305.67544    210.57753   -3185.9177   -2731.2487    962.86411    11918.315 
   92750     298.2253    210.28137   -3176.0457   -2732.4581    1185.4237    11920.511 
   92800    320.41855    210.95566   -3198.5219   -2721.9236    539.96362    11923.019 
   92850    322.67271    211.00583   -3200.1942    -2720.243    458.48756    11925.574 
   92900    296.21715    210.14839    -3171.613   -2731.0125    1211.9085    11928.139 
   92950     289.1534    209.95898   -3165.2994   -2735.2057    1396.2576    11931.044 
   93000    293.62396    210.11191   -3170.3971   -2733.6537    1277.8131    11934.426 
   93050    314.66582    210.71301   -3190.4336   -2722.3921      663.413    11938.196 
   93100    313.88511    210.65396   -3188.4654   -2721.5851    650.35244    11942.069 
   93150    308.71685    210.38071    -3179.357   -2720.1641    829.64335    11946.028 
   93200    315.76606    210.65514   -3188.5045   -2718.8264    559.26221    11950.134 
   93250    298.66362    210.15124   -3171.7078   -2727.4683     928.9719    11954.304 
   93300    299.89435    210.16981   -3172.3269   -2726.2568    897.15522    11958.665 
   93350    305.23076    210.25583   -3175.1943   -2721.1867     747.3734    11963.242 
   93400    315.36364    210.52565   -3184.1885   -2715.1089    350.11899    11967.951 
   93450     306.3079    210.20252   -3173.4174   -2717.8077    497.89049    11972.605 
   93500    299.46404    209.99777   -3166.5924   -2721.1623    641.25223    11977.252 
   93550    306.89994    210.15422   -3171.8073   -2715.3169    487.68601    11981.967 
   93600    321.92759    210.66521   -3188.8402   -2709.9974    57.730538    11986.654 
   93650    302.63556    209.97339   -3165.7798   -2715.6323    550.15987    11991.172 
   93700     289.4356    209.51399   -3150.4662   -2719.9527    891.07111    11995.713 
   93750    304.75477    209.87418   -3162.4725   -2709.1729    576.71209    12000.436 
   93800    318.67374    210.37707   -3179.2358   -2705.2327    185.85064    12005.204 
   93850    312.15753      210.083   -3169.4332   -2705.1226    357.96564    12009.827 
   93900    307.41348    209.96474   -3165.4912    -2708.237    459.59077    12014.349 
   93950    306.58981    209.96064   -3165.3548   -2709.3256    444.74949    12018.854 
   94000    311.45896    210.08176   -3169.3919   -2706.1203    271.10602    12023.318 
   94050     301.9938    214.76742   -3158.9141   -2709.7212    434.99406    12027.691 
   94100    296.23524      214.571   -3152.3668   -2711.7393    610.18292    12032.042 
   94150    298.05809     214.5369     -3151.23   -2707.8912    635.18459    12036.471 
   94200    310.56844    214.81613   -3160.5378   -2698.5908    292.53934    12040.981 
   94250    316.62128    214.95089   -3165.0298   -2694.0796    102.85454    12045.394 
   94300    306.50662     214.5821   -3152.7366   -2696.8312    369.29977     12049.63 
   94350    311.18606    214.73375   -3157.7917    -2694.926    151.53254    12053.779 
   94400    297.56133    214.25411   -3141.8036   -2699.2037    694.11152    12057.801 
   94450    294.94115    214.13174   -3137.7246    -2699.022    823.94501    12061.934 
   94500    314.17699    214.63367   -3154.4556   -2687.1412    204.22952    12066.212 
   94550    299.68472    214.23109   -3141.0363    -2695.278    518.28424      12070.4 
   94600    307.43017    214.36367   -3145.4555   -2688.1764    306.66497    12074.596 
   94650    322.65425    214.83591   -3161.1969   -2681.2732   -125.25861    12078.676 
   94700    318.19682    214.62298   -3154.0992   -2680.8055    66.742631    12082.469 
   94750    297.53335     214.0202   -3134.0065   -2691.4482    618.93179    12086.075 
   94800    301.22348     214.0885   -3136.2833   -2688.2362    503.33921    12089.736 
   94850    313.94103    214.44615   -3148.2052   -2681.2417    171.59178    12093.402 
   94900     306.1641    214.21575   -3140.5251   -2685.1292    369.37024    12096.931 
   94950    319.99703    214.62828   -3154.2761   -2678.3048    -81.99565    12100.361 
   95000    310.84155    214.22639   -3140.8797   -2678.5264     105.7939    12103.538 
   95050    321.63702    214.57014   -3152.3379   -2673.9273   -140.72337    12106.464 
   95100    307.04689    214.14283   -3138.0943   -2681.3853    200.46306    12109.098 
   95150    325.01191    214.60543   -3153.5144   -2670.0838   -313.06422    12111.509 
   95200    299.43248    213.80978   -3126.9927   -2681.6096    430.32073    12113.566 
   95250    303.52564    213.88261   -3129.4202   -2677.9488    345.42184    12115.553 
   95300    312.19242    214.08869   -3136.2896    -2671.927    63.104582    12117.462 
   95350    318.18279    214.28639   -3142.8795   -2669.6067   -97.195529    12119.139 
   95400    298.59731    213.63675   -3121.2249    -2677.084    464.94575    12120.546 
   95450    310.86709    214.06882   -3135.6272    -2673.236    94.140573    12121.888 
   95500    321.08377     214.3338   -3144.4601   -2666.8723   -193.88683    12123.051 
   95550    327.43228    214.53836   -3151.2788   -2664.2481    -343.6027    12123.821 
   95600     312.3675    214.04913   -3134.9709   -2670.3479    98.166793    12124.164 
   95650    310.33488    213.93446   -3131.1486    -2669.549    217.28506    12124.272 
   95700    309.10897    213.88258   -3129.4192    -2669.643    304.31566    12124.233 
   95750    315.98058    214.15709   -3138.5696   -2668.5724    159.13917    12124.074 
   95800    310.57177    213.91294   -3130.4314   -2668.4794    270.43793    12123.751 
   95850     314.9708    214.10531   -3136.8435   -2668.3483    98.465811    12123.289 
   95900    327.80914    214.55058    -3151.686   -2664.0948   -282.07417    12122.594 
   95950    322.55905    214.41647   -3147.2157   -2667.4336   -193.79555    12121.484 
   96000    298.71204    213.76059   -3125.3529   -2681.0414    429.92979    12120.029 
   96050    312.09547     214.1336   -3137.7867   -2673.5684    141.37395    12118.483 
   96100    303.72401    213.97069   -3132.3564   -2680.5899    400.60899    12116.781 
   96150    304.71194    213.98086   -3132.6953   -2679.4594    385.93302    12115.013 
   96200    311.16799    214.25509   -3141.8363   -2678.9975    58.468761     12113.18 
   96250    315.25264    214.23339   -3141.1128   -2672.1984  0.082738707    12111.122 
   96300    299.22331     213.7954   -3126.5133   -2681.4413    470.54656    12108.828 
   96350     313.2632    214.21072   -3140.3573   -2674.4021    92.749922    12106.469 
   96400     321.8382    214.58582   -3152.8607   -2674.1508   -193.11078    12103.894 
   96450    311.44726    214.29132    -3143.044   -2679.7898    84.938068    12100.967 
   96500    302.25885    214.05427   -3135.1424   -2685.5552    345.06449    12097.813 
   96550    306.49105    214.24363   -3141.4544   -2685.5722    194.11999     12094.56 
   96600    312.72938    214.53111    -3151.037   -2685.8757    22.549507    12091.136 
   96650    314.68452    214.64843   -3154.9476   -2686.8782    10.593522    12087.444 
   96700     311.4896    214.63716   -3154.5719   -2691.2547    50.358181    12083.478 
   96750    310.69571    214.71336    -3157.112   -2694.9757   -37.926357    12079.247 
   96800    300.71395    214.55136   -3151.7121   -2704.4229    161.91292    12074.731 
   96850    286.92851     214.1095   -3136.9834    -2710.199    530.98086    12070.049 
   96900    308.88075    214.85155   -3161.7182   -2702.2815   -90.366434    12065.332 
   96950    304.86137    214.89216   -3163.0721   -2709.6139    9.9142492    12060.348 
   97000    297.94568    214.66403   -3155.4677    -2712.296     240.1785    12055.106 
   97050    317.54574    210.36457    -3178.819   -2706.4938   -354.39603    12049.656 
   97100    295.89958    209.79318   -3159.7727   -2719.6445    161.26098    12043.785 
   97150    292.33036     209.7176   -3157.2532    -2722.434    398.29446    12037.699 
   97200    299.31452    209.98275   -3166.0917    -2720.884    329.49988    12031.528 
   97250     304.4825    210.22181   -3174.0603   -2721.1656    160.86161    12025.251 
   97300    310.76813    210.47971   -3182.6569   -2720.4128   -97.221591    12018.766 
   97350    295.53942    210.04483   -3168.1609   -2728.5685    264.52401    12011.978 
   97400    309.48704    210.33352   -3177.7842   -2717.4456    96.689769    12005.021 
   97450    306.56262    210.26304   -3175.4348   -2719.4461    249.61895    11997.851 
   97500    301.42349    210.15644   -3171.8815   -2723.5369    384.61423    11990.524 
   97550    298.67307    210.17737   -3172.5789   -2728.3254    494.76853    11983.114 
   97600     293.9844     210.0644   -3168.8132   -2731.5337    816.04211    11975.679 
   97650    291.40084    210.02083    -3167.361   -2733.9244    928.96771    11968.388 
   97700    316.84189    210.89445   -3196.4815   -2725.2032    224.36866    11961.257 
   97750    300.42652    210.33245   -3177.7484   -2730.8867    722.10132    11954.032 
   97800     301.0695    210.45274   -3181.7579   -2733.9399    719.98151    11946.869 
   97850    307.13909    210.58133   -3186.0442   -2729.1981    587.18197    11939.796 
   97900    310.99922    210.76795    -3192.265   -2729.6773    571.83489     11932.75 
   97950    303.84956     210.5467   -3184.8899   -2732.9367    973.24715    11925.743 
   98000    297.15709    210.42097   -3180.6991   -2738.7005     1203.084    11918.965 
   98050    305.12099    215.71299   -3190.4329   -2736.5885      948.379    11912.523 
   98100     311.9934     215.8335   -3194.4499   -2730.3834     881.4737    11906.314 
   98150    304.44503    215.55951    -3185.317   -2732.4781    1198.1635    11900.314 
   98200     302.5972    215.55486   -3185.1619   -2735.0715    1313.7947     11894.65 
   98250     296.9552     215.4515   -3181.7166   -2740.0183    1523.7213    11889.421 
   98300    309.09299    215.78863   -3192.9542   -2733.2018    1243.1354    11884.691 
   98350    299.31634    215.45157    -3181.719   -2736.5086    1507.4754    11880.375 
   98400    297.04293    215.31111    -3177.037   -2735.2081    1594.3902    11876.568 
   98450    297.60362    215.49378   -3183.1259   -2740.4631    1526.8605    11873.327 
   98500    309.12457      215.851   -3195.0335   -2735.2341    1247.5924    11870.617 
   98550    305.30914    215.79667   -3193.2225   -2739.0983    1309.1763    11868.324 
   98600     303.3103    215.64722   -3188.2406   -2737.0895    1406.1394    11866.457 
   98650    294.17546    215.47476    -3182.492   -2744.9283    1668.9828    11865.065 
   98700    295.55459    215.52829   -3184.2762   -2744.6611    1721.8022    11864.258 
   98750    307.45045    215.89168   -3196.3894   -2739.0801    1366.8047    11864.078 
   98800    319.53459    216.28385   -3209.4615   -2734.1781    992.67913    11864.357 
   98850    297.39232    215.57022   -3185.6741   -2743.3256    1586.8922    11864.966 
   98900    308.31221    215.95846   -3198.6154   -2740.0244    1227.4196    11866.074 
   98950    300.01948    215.71917   -3190.6389   -2744.3827    1366.1071    11867.606 
   99000    301.80403    215.85915   -3195.3051   -2746.3945    1288.6692    11869.578 
   99050    284.51629    215.40256   -3180.0852   -2756.8888    1693.8155    11872.017 
   99100    300.41093     215.8194   -3193.9799   -2747.1414    1165.4963    11875.043 
   99150    292.38341     215.6424   -3188.0801   -2753.1819    1195.2513    11878.457 
   99200    299.79731    215.92862   -3197.6208    -2751.695    887.12933    11882.235 
   99250    295.36783    215.77506   -3192.5021   -2753.1649    997.13633    11886.275 
   99300    297.26041    215.79668   -3193.2226   -2751.0702    996.68145    11890.585 
   99350    303.59298    216.07126   -3202.3755   -2750.8039    758.68948    11895.165 
   99400    289.10277    215.60617   -3186.8722   -2756.8537    1025.4868    11899.953 
   99450    291.10994    215.70121   -3190.0402   -2757.0363     850.4631    11905.009 
   99500    286.43349    215.49754   -3183.2514   -2757.2033    964.28529    11910.308 
   99550    294.00501    215.83036   -3194.3453   -2757.0352    629.58244    11915.874 
   99600    293.92663    215.75103   -3191.7009   -2754.5073    543.52865    11921.549 
   99650    287.25315    215.57765   -3185.9218   -2758.6545    642.02554    11927.293 
   99700    297.29838    215.81677   -3193.8923   -2751.6835    336.48948    11933.129 
   99750    285.23515    215.55463   -3185.1542   -2760.8885    567.48835    11938.961 
   99800     296.1332    215.83009   -3194.3363   -2753.8606    237.68718    11944.841 
   99850     296.6207     215.9085   -3196.9499   -2755.7491    143.32928    11950.628 
   99900    279.38548    215.24873   -3174.9578   -2759.3931    602.28395    11956.301 
   99950    284.28626    215.54858   -3184.9527   -2762.0985    353.24516     11962.04 
  100000    286.86694    215.54256   -3184.7521   -2758.0593    295.31206    11967.754 
Loop time of 26.8325 on 1 procs for 100000 steps with 500 atoms

Performance: 321.998 ns/day, 0.075 hours/ns, 3726.825 timesteps/s
99.8% CPU use with 1 MPI tasks x 1 OpenMP threads

MPI task timing breakdown:
Section |  min time  |  avg time  |  max time  |%varavg| %total
---------------------------------------------------------------
Pair    | 22.177     | 22.177     | 22.177     |   0.0 | 82.65
Bond    | 0.0071023  | 0.0071023  | 0.0071023  |   0.0 |  0.03
Neigh   | 0.49714    | 0.49714    | 0.49714    |   0.0 |  1.85
Comm    | 0.79133    | 0.79133    | 0.79133    |   0.0 |  2.95
Output  | 0.018225   | 0.018225   | 0.018225   |   0.0 |  0.07
Modify  | 2.7686     | 2.7686     | 2.7686     |   0.0 | 10.32
Other   |            | 0.5736     |            |       |  2.14

Nlocal:    500 ave 500 max 500 min
Histogram: 1 0 0 0 0 0 0 0 0 0
Nghost:    1604 ave 1604 max 1604 min
Histogram: 1 0 0 0 0 0 0 0 0 0
Neighs:    14613 ave 14613 max 14613 min
Histogram: 1 0 0 0 0 0 0 0 0 0

Total # of neighbors = 14613
Ave neighs/atom = 29.226
Ave special neighs/atom = 0
Neighbor list builds = 601
Dangerous builds = 0

write_data      ${walker}/final_restart_file
write_data      1/final_restart_file

quit
