LAMMPS (19 May 2017)
Processor partition = 1
  using 1 OpenMP thread(s) per MPI task
# gREM variables
variable        lambda world 1000 1005 1010 1015 1020 1025 1030 1035 1040 1045 1050 1055 1060 1065 1070 1075
variable        walker world 0 1 2 3 4 5 6 7 8 9 10 11 12 13 14 15
variable        replica world 2 3 4 6 13 0 1 7 11 14 9 8 5 10 12 15

variable        T0 equal 300.0
variable        press equal 0.0

units           real
atom_style      full
pair_style      lj/cut 5.0

# LJ particles
read_data       ${walker}/restart_file
read_data       1/restart_file
  orthogonal box = (1.12477 1.12477 1.12477) to (23.8752 23.8752 23.8752)
  1 by 1 by 1 MPI processor grid
  reading atoms ...
  500 atoms
  reading velocities ...
  500 velocities
  0 = max # of 1-2 neighbors
  0 = max # of 1-3 neighbors
  0 = max # of 1-4 neighbors
  1 = max # of special neighbors

#dump            dump all xyz 1000 ${walker}/dump.xyz

fix             fxnpt all npt temp ${T0} ${T0} 1000.0 iso ${press} ${press} 10000.0
fix             fxnpt all npt temp 300 ${T0} 1000.0 iso ${press} ${press} 10000.0
fix             fxnpt all npt temp 300 300 1000.0 iso ${press} ${press} 10000.0
fix             fxnpt all npt temp 300 300 1000.0 iso 0 ${press} 10000.0
fix             fxnpt all npt temp 300 300 1000.0 iso 0 0 10000.0
fix             fxgREM all grem ${lambda} -.03 -30000 fxnpt
fix             fxgREM all grem 1005 -.03 -30000 fxnpt
thermo_modify   press fxgREM_press

thermo          50
thermo_style    custom step temp f_fxgREM pe etotal press vol
WARNING: New thermo_style command, previous thermo_modify settings will be lost (../output.cpp:705)
timestep        1.0

temper/grem     100000 1000 ${lambda} fxgREM fxnpt 10294 98392 ${walker}
temper/grem     100000 1000 1005 fxgREM fxnpt 10294 98392 ${walker}
temper/grem     100000 1000 1005 fxgREM fxnpt 10294 98392 1
Neighbor list info ...
  update every 1 steps, delay 10 steps, check yes
  max neighbors/atom: 2000, page size: 100000
  master list distance cutoff = 7
  ghost atom cutoff = 7
  binsize = 3.5, bins = 7 7 7
  1 neighbor lists, perpetual/occasional/extra = 1 0 0
  (1) pair lj/cut, perpetual
      attributes: half, newton on
      pair build: half/bin/newton
      stencil: half/bin/3d/newton
      bin: standard
Per MPI rank memory allocation (min/avg/max) = 5.724 | 5.724 | 5.724 Mbytes
Step Temp f_fxgREM PotEng TotEng Press Volume 
       0    323.67667    201.79906   -3226.6354   -2745.1909     1476.808    11775.269 
      50    302.36311    201.11471   -3203.8238   -2754.0816    2068.2207    11775.512 
     100    318.11481    201.67312   -3222.4374   -2749.2658    1713.0041    11776.432 
     150    319.23276    201.65761   -3221.9204   -2747.0859    1688.0317    11777.954 
     200    311.23947    201.43921   -3214.6403   -2751.6952    1857.4564    11780.036 
     250    300.91706    201.17305   -3205.7685   -2758.1772    2022.1824    11782.772 
     300    323.60053    201.86963   -3228.9878   -2747.6566    1333.8197    11786.195 
     350    310.25715    201.50494   -3216.8314   -2755.3474    1530.3033    11790.047 
     400    321.46757     201.8911   -3229.7033   -2751.5446    1180.0273    11794.338 
     450    298.40673    201.18511   -3206.1702   -2762.3128    1749.8956    11798.991 
     500    308.45829    201.51625   -3217.2082   -2758.3999    1451.9532     11804.18 
     550    299.58938    201.24223   -3208.0744   -2762.4579    1504.5548    11809.848 
     600     301.5686    201.38436   -3212.8121   -2764.2517    1300.4424    11815.985 
     650    305.37282     201.5106     -3217.02   -2762.8011    1173.1859    11822.516 
     700    305.02962    201.43898   -3214.6325   -2760.9241    1119.6701    11829.355 
     750    300.75738     201.3413   -3211.3766   -2764.0228     1073.864     11836.48 
     800    298.88831    201.32404   -3210.8015   -2766.2278     1038.613    11843.864 
     850    301.25237    201.48918   -3216.3062   -2768.2161     833.8633    11851.486 
     900    302.22325    201.37979   -3212.6597   -2763.1255    641.53023    11859.263 
     950    309.77022    201.69325   -3223.1083   -2762.3486    311.34081    11867.062 
    1000      303.363    201.57422   -3219.1408   -2767.9113    347.71343    11874.755 
    1050    291.21042    196.20137   -3206.7122   -2773.5587    530.74381    11882.348 
    1100    296.57914    196.39464   -3213.1548   -2772.0158    309.59942    11889.904 
    1150     296.6972    196.30041   -3210.0137   -2768.6991    249.67625    11897.334 
    1200     302.7936    196.53072   -3217.6908   -2767.3083   -11.441811    11904.577 
    1250     296.9845    196.41366   -3213.7886   -2772.0467    94.132521    11911.533 
    1300    284.10813    196.11398   -3203.7994   -2781.2101    347.60403    11918.241 
    1350    286.23545    196.14755   -3204.9184   -2779.1649    124.60988    11924.818 
    1400    296.52726    196.43782    -3214.594   -2773.5322   -280.70068    11931.153 
    1450    300.53296    196.59619   -3219.8731   -2772.8531   -406.25763    11937.041 
    1500    272.19569    195.86126   -3195.3752   -2790.5048    193.29977     11942.46 
    1550    290.29346      196.368   -3212.2668   -2780.4773   -354.81406    11947.618 
    1600    275.29144    195.91936   -3197.3121   -2787.8369   -6.1254578    11952.351 
    1650     292.2553    196.41676   -3213.8919   -2779.1843   -489.77081    11956.744 
    1700    303.12127    196.74055    -3224.685   -2773.8151   -898.76928    11960.591 
    1750    288.58705     196.3932   -3213.1068   -2783.8554   -591.11101    11963.687 
    1800    281.32521    196.19057   -3206.3524   -2787.9024   -437.01597    11966.176 
    1850    288.50601    196.41199    -3213.733   -2784.6021    -708.9209    11968.119 
    1900    274.94244    196.03059   -3201.0197   -2792.0637   -405.23654    11969.433 
    1950    274.40985    196.00309    -3200.103   -2791.9391   -330.84224    11970.233 
    2000    284.83158    196.25675   -3208.5583   -2784.8929   -520.58208    11970.572 
    2050    285.35228    201.31535   -3210.5116   -2786.0717   -574.99844    11970.362 
    2100    285.79122    201.35478   -3211.8261   -2786.7333   -662.12671     11969.56 
    2150    274.83069    201.03157   -3201.0523   -2792.2625   -373.48954    11968.145 
    2200    273.59882    200.96042   -3198.6808   -2791.7233   -317.75537    11966.268 
    2250     293.4657    201.58514   -3219.5048   -2782.9968   -799.34781    11963.926 
    2300    284.82808    201.31528   -3210.5093   -2786.8491   -508.83278    11960.929 
    2350    293.04539    201.62348   -3220.7827   -2784.8999   -746.78198     11957.35 
    2400    293.13767    201.56855   -3218.9518   -2782.9317   -701.60987      11953.1 
    2450    267.74814    200.77201   -3192.4003   -2794.1452    83.091434    11948.243 
    2500    284.43301    201.28416   -3209.4719   -2786.3994    -264.8604    11943.091 
    2550     279.1803    201.07197    -3202.399   -2787.1395   -101.51076    11937.572 
    2600    296.81742    201.65038   -3221.6792   -2780.1858   -518.60843    11931.678 
    2650    293.31583    201.59447   -3219.8158   -2783.5307   -280.28511    11925.278 
    2700    290.94734    201.48837    -3216.279   -2783.5169   -12.659535    11918.447 
    2750    287.28702    201.29006   -3209.6688   -2782.3511    214.79881    11911.332 
    2800     297.2454    201.60359   -3220.1197   -2777.9897    3.0184057     11904.03 
    2850    299.52482     201.6052   -3220.1734   -2774.6529    116.19587    11896.471 
    2900    281.40462    200.96795   -3198.9316   -2780.3636    833.84787    11888.732 
    2950     296.7928    201.35072   -3211.6905   -2770.2337    604.96908    11881.102 
    3000    304.55598    201.55468   -3218.4893   -2765.4854    515.86197    11873.508 
    3050     300.1466    201.31435   -3210.4783   -2764.0329    899.70094    11865.931 
    3100    303.25273    201.34131    -3211.377   -2760.3115    995.73955    11858.523 
    3150    310.70916    201.66624    -3222.208   -2760.0516    836.63546    11851.318 
    3200    316.32717    201.73031   -3224.3435   -2753.8309    876.71575     11844.26 
    3250    301.69617    201.16172   -3205.3907   -2756.6405    1461.8085    11837.385 
    3300    295.87762    200.91071   -3197.0236   -2756.9281    1767.6482    11830.962 
    3350    297.83279    200.93532   -3197.8439   -2754.8402    1775.7204    11825.168 
    3400    320.54067    201.60782   -3220.2605   -2743.4806    1255.5452    11819.968 
    3450    305.67456    201.10604   -3203.5348    -2748.867     1752.375    11815.168 
    3500    306.05653    201.10629   -3203.5431   -2748.3072    1813.9721    11810.946 
    3550    321.84247    201.57154   -3219.0512   -2740.3349    1423.1531    11807.346 
    3600    321.65361    201.55994   -3218.6647   -2740.2293    1477.0461    11804.204 
    3650    314.09883    201.27812   -3209.2707   -2742.0725    1766.4946    11801.513 
    3700    326.66806    201.56415    -3218.805    -2732.911    1518.3322    11799.388 
    3750    321.71767    201.45611   -3215.2036   -2736.6729    1611.5871    11797.755 
    3800     311.9284    201.13337   -3204.4458    -2740.476    1895.9894    11796.639 
    3850    315.63235    201.21719   -3207.2396   -2737.7604    1805.5775    11796.184 
    3900    311.20294    201.15495   -3205.1651   -2742.2743    1893.9029    11796.358 
    3950    309.03159    201.05657   -3201.8858   -2742.2247    2020.8764    11797.191 
    4000    324.66905    201.42636   -3214.2121   -2731.2915    1679.4532    11798.723 
    4050    324.18787    201.38441   -3212.8138   -2730.6089    1671.6584    11800.822 
    4100    320.10648    201.38449   -3212.8162   -2736.6821    1752.5784    11803.468 
    4150     312.5844    201.17041   -3205.6804   -2740.7348    1940.7017    11806.715 
    4200    305.52731    200.90952   -3196.9841   -2742.5354    2016.1175    11810.656 
    4250    323.00516    201.49075   -3216.3583   -2735.9126    1435.4407    11815.279 
    4300    318.41254    201.40193   -3213.3978   -2739.7833    1409.9973    11820.366 
    4350    298.44239    200.78903   -3192.9675   -2749.0571    1923.4591    11825.896 
    4400    303.81739    200.93034   -3197.6779   -2745.7726    1676.0958     11832.09 
    4450    311.69725    201.14657   -3204.8857   -2741.2597    1252.2616    11838.845 
    4500    311.82288    201.23879   -3207.9598   -2744.1469     994.1119    11845.938 
    4550    311.43526    201.27714   -3209.2379   -2746.0015    859.75989    11853.248 
    4600    298.98879     200.8577   -3195.2566   -2750.5335    1209.7913    11860.723 
    4650    291.09625     200.6141   -3187.1367   -2754.1531    1311.7067    11868.526 
    4700    312.81606    201.32137   -3210.7122   -2745.4221     568.6276    11876.665 
    4750    324.52754    201.63261   -3221.0871   -2738.3769     257.2623    11884.806 
    4800     300.1774    200.87088   -3195.6961    -2749.205    876.19931     11892.83 
    4850    308.98013    201.10591   -3203.5302   -2743.9457    510.32515    11900.944 
    4900    300.53106    201.00289   -3200.0963   -2753.0792    525.17065    11909.037 
    4950    297.13324    200.92026   -3197.3421    -2755.379    509.62653    11917.104 
    5000    301.83155    201.03943   -3201.3142   -2752.3626    279.35528     11925.14 
    5050    308.50659    201.27273   -3209.0908   -2750.2107   -64.853881    11933.014 
    5100    301.33965    201.17488   -3205.8294   -2757.6095   -83.810257    11940.575 
    5150    290.09165     200.8875     -3196.25   -2764.7607    148.27914    11947.824 
    5200    303.76169    201.26516   -3208.8387   -2757.0162   -287.83015     11954.82 
    5250    293.56889     201.0825   -3202.7501   -2766.0887    -178.9573    11961.388 
    5300    294.03224    201.05586   -3201.8621   -2764.5114    -223.0256    11967.559 
    5350    300.66802    201.26793   -3208.9309     -2761.71    -491.3196    11973.324 
    5400    294.29549      201.016   -3200.5334   -2762.7912    -304.3459    11978.553 
    5450    282.84399    200.64273   -3188.0911   -2767.3821  -0.86370787    11983.343 
    5500    301.95417    201.32686   -3210.8952   -2761.7613   -667.95784    11987.787 
    5550     294.0391    201.13125   -3204.3751   -2767.0142   -611.90217    11991.635 
    5600    289.48098    200.95243   -3198.4142   -2767.8332   -580.48708    11994.862 
    5650    300.89046      201.278   -3209.2665   -2761.7148   -902.63632    11997.466 
    5700    286.47528    200.86251   -3195.4169   -2769.3067   -492.66102    11999.344 
    5750    292.98276    201.08312   -3202.7706    -2766.981   -598.82438    12000.634 
    5800    290.89715    201.10111   -3203.3702   -2770.6828   -605.86783    12001.334 
    5850    289.05284    200.97926   -3199.3088   -2769.3646   -561.14425    12001.429 
    5900    285.50089    200.90385   -3196.7952   -2772.1342   -520.82641    12000.941 
    5950    284.69441    200.81374   -3193.7914   -2770.3301   -541.55227    11999.902 
    6000    297.50668    201.11373   -3203.7909   -2761.2723   -821.58708    11998.275 
    6050     284.4032    205.74331   -3191.4438   -2768.4156   -394.73578    11995.977 
    6100    285.38364    205.84579   -3194.8598   -2770.3733   -365.06069    11993.166 
    6150    280.31263    205.66608   -3188.8692   -2771.9254   -102.96926    11989.913 
    6200    277.27184    205.56903   -3185.6343   -2773.2134    53.667151    11986.349 
    6250    284.57351     205.8093   -3193.6434   -2770.3619   -174.93434    11982.529 
    6300    290.03233    206.09372   -3203.1241    -2771.723   -370.50832    11978.362 
    6350    289.27716    206.02461   -3200.8204   -2770.5425   -270.80379    11973.755 
    6400     280.8153    205.78037    -3192.679   -2774.9875   -25.706408    11968.746 
    6450    276.34874    205.62386   -3187.4618    -2776.414    177.46272    11963.472 
    6500    303.69215    206.41911   -3213.9704   -2762.2514   -462.53381    11957.982 
    6550    292.14906    206.04928   -3201.6428   -2767.0932   -131.07359    11952.043 
    6600    295.98299    206.12578   -3204.1927   -2763.9404   -96.237895    11945.749 
    6650    294.66163    206.04231   -3201.4102   -2763.1234    77.237074    11939.157 
    6700     280.2922     205.5493   -3184.9768   -2768.0633    547.21499    11932.372 
    6750     297.4159    206.06799   -3202.2665   -2759.8829     190.8394    11925.576 
    6800    301.17653    206.21098   -3207.0325   -2759.0552    126.01841    11918.638 
    6850    291.22111     205.9557   -3198.5233   -2765.3539    479.02277    11911.518 
    6900     296.3733    206.09761   -3203.2535   -2762.4207    505.06178    11904.373 
    6950    295.68739    206.01849   -3200.6165   -2760.8039    665.24155     11897.24 
    7000    301.57222     206.1976   -3206.5866   -2758.0208    580.77561    11890.178 
    7050    292.54068    205.79085   -3193.0284   -2757.8963    1014.0953    11883.194 
    7100    298.88748    205.95927   -3198.6422   -2754.0697    968.27991    11876.454 
    7150    317.14677     206.4861   -3216.2032   -2744.4714    600.56283     11869.93 
    7200    303.80871    206.12315   -3204.1051   -2752.2126    1106.5673    11863.482 
    7250    293.99509     205.7579   -3191.9301   -2754.6347    1532.0409    11857.354 
    7300    307.24786    206.08525   -3202.8417   -2745.8338    1245.7121    11851.723 
    7350    315.86846    206.25378   -3208.4594    -2738.629    1067.4007    11846.473 
    7400    305.57832    205.92328   -3197.4425   -2742.9179    1435.4129    11841.534 
    7450    311.39246    206.07906   -3202.6352   -2739.4625    1443.7051    11837.021 
    7500    304.46629    205.87774   -3195.9246   -2743.0541    1659.0655    11832.998 
    7550    315.94646    206.13835   -3204.6116   -2734.6652    1437.4858    11829.531 
    7600    311.37995    205.95278   -3198.4259   -2735.2718     1706.585    11826.538 
    7650    316.15726    206.10342   -3203.4472   -2733.1872    1582.9942    11824.122 
    7700    317.49204    206.11555   -3203.8517   -2731.6063    1589.2165    11822.234 
    7750     293.8679    205.39592   -3179.8639   -2742.7577    2306.9516     11820.91 
    7800    313.30462    206.01901   -3200.6336   -2734.6167    1815.2039    11820.431 
    7850    318.30544    206.06742   -3202.2473   -2728.7921    1708.3789    11820.632 
    7900    316.56502    205.97655   -3199.2182   -2728.3518    1794.8623    11821.407 
    7950    317.32939     206.0651     -3202.17   -2730.1666    1700.7055    11822.806 
    8000    313.40519    205.93417   -3197.8058   -2731.6393     1812.451    11824.799 
    8050    317.79138    206.00997   -3200.3325   -2727.6419    1631.7933    11827.421 
    8100     328.3219    206.24933    -3208.311   -2719.9571    1325.3513    11830.581 
    8150    311.23504    205.82078   -3194.0261   -2731.0876    1809.0428    11834.162 
    8200    319.66331    206.03129    -3201.043    -2725.568    1541.4641    11838.335 
    8250    315.16634    205.86842   -3195.6141    -2726.828    1642.7022    11843.035 
    8300    299.94503     205.3929   -3179.7632   -2733.6177    2113.3081    11848.296 
    8350    304.59466      205.436   -3181.1999   -2728.1384    1936.8454    11854.324 
    8400    327.52411     206.1528   -3205.0932   -2717.9259    1111.9373    11861.024 
    8450    318.71786    205.87333   -3195.7775   -2721.7089    1262.7415    11868.032 
    8500    307.84964    205.49535   -3183.1783   -2725.2753    1495.6478    11875.403 
    8550    325.58898    206.19508   -3206.5028   -2722.2139    833.20749    11883.191 
    8600    306.76049     205.5487   -3184.9566   -2728.6736    1194.1352     11891.17 
    8650    313.60777    205.71733   -3190.5775   -2724.1097    961.79447    11899.444 
    8700    317.02713    205.78572   -3192.8575   -2721.3036    771.81774    11907.917 
    8750    315.54858    205.86348   -3195.4494   -2726.0948    529.57055    11916.475 
    8800    307.55319    205.59671    -3186.557    -2729.095    550.97953    11925.022 
    8850     301.5587    205.44295   -3181.4316   -2732.8859    656.70181    11933.557 
    8900    320.37662    206.02372   -3200.7905   -2724.2546    135.32034    11942.096 
    8950    312.67798    205.82572   -3194.1907   -2729.1059    330.04498    11950.427 
    9000    295.21606    205.25985   -3175.3284   -2736.2169    758.82958    11958.643 
    9050    301.58245    205.50731    -3183.577    -2734.996    417.92815     11966.91 
    9100    288.30077    205.03452   -3167.8172   -2738.9917    656.05708    11975.133 
    9150    298.92725    205.39153   -3179.7175   -2735.0859    233.44389    11983.353 
    9200    295.84924    205.30812   -3176.9372   -2736.8839    119.15238    11991.436 
    9250    301.85133    205.59821   -3186.6069   -2737.6259   -235.17556    11999.262 
    9300    299.68659    205.52723   -3184.2409   -2738.4798   -231.36861    12006.683 
    9350    291.62422    205.24769   -3174.9229    -2741.154   -46.307305    12013.693 
    9400    282.68646    204.92448   -3164.1493   -2743.6746    93.208905    12020.392 
    9450    296.94173    205.34092   -3178.0308   -2736.3525   -381.77041    12026.826 
    9500    302.92521    205.49174   -3183.0581   -2732.4799   -568.95828    12032.772 
    9550    306.02611    205.56288   -3185.4293   -2730.2386   -725.97472    12038.108 
    9600    300.86294    205.44495   -3181.4983   -2733.9875   -693.04566    12042.763 
    9650     297.6023    205.24364    -3174.788   -2732.1271    -569.8782    12046.752 
    9700    302.12851    205.40226   -3180.0753    -2730.682    -709.0727    12050.132 
    9750    300.62919    205.38894   -3179.6315   -2732.4684   -704.45893    12052.839 
    9800    282.44632    204.78002   -3159.3341   -2739.2165   -169.74241    12054.915 
    9850    302.17291    205.46007   -3182.0022   -2732.5429   -716.98574    12056.561 
    9900    288.30159    205.04334   -3168.1113   -2739.2846   -388.37148    12057.606 
    9950    293.87436    205.24728   -3174.9094   -2737.7936    -485.8208    12058.112 
   10000    288.92063    205.03837   -3167.9457   -2738.1982   -327.98488    12058.106 
   10050     308.0384    205.53604   -3184.5345   -2726.3508   -812.07658    12057.596 
   10100    293.01786    205.13037   -3171.0124   -2735.1706   -379.16281    12056.429 
   10150    285.64023    204.95786   -3165.2618   -2740.3936   -63.559281    12054.774 
   10200     281.9432    204.88785   -3162.9282   -2743.5591    30.221895    12052.812 
   10250    295.43599    205.16665   -3172.2215   -2732.7829    -247.8506     12050.58 
   10300    295.54993    205.15506   -3171.8353   -2732.2272   -255.83016    12047.971 
   10350    294.53459     205.1995   -3173.3166   -2735.2187   -279.29183     12044.95 
   10400    305.24633    205.49954    -3183.318   -2729.2872   -547.75149    12041.495 
   10450    303.63675    205.49137   -3183.0457    -2731.409   -475.22154    12037.494 
   10500    298.87081    205.39567   -3179.8555   -2735.3079   -289.87639    12032.964 
   10550    308.46564    205.69552   -3189.8506   -2731.0313   -463.27025    12028.006 
   10600    297.67422    205.29845   -3176.6149    -2733.847   -105.01991     12022.57 
   10650    298.73689    205.36595    -3178.865   -2734.5166   -89.134077    12016.787 
   10700    292.47682    205.20549   -3173.5163   -2738.4792    104.74121    12010.721 
   10750    306.10609    205.61634   -3187.2112   -2731.9016   -207.02306     12004.43 
   10800    302.40912    205.46337   -3182.1124   -2732.3018     25.27391     11997.81 
   10850    290.55848     205.1791   -3172.6368   -2740.4531    376.56631    11990.948 
   10900    309.05754       205.62   -3187.3333   -2727.6336    6.9243444    11983.992 
   10950    298.85732    205.31452   -3177.1505   -2732.6229     369.4917    11976.846 
   11000    311.12089    205.66853   -3188.9509   -2726.1822    90.950844    11969.599 
   11050    311.68474    205.66309   -3188.7695   -2725.1621    155.55336    11962.156 
   11100    297.13773    205.25111   -3175.0371   -2733.0673    706.72788    11954.577 
   11150    303.67608    205.54609   -3184.8697   -2733.1745    618.56523    11947.075 
   11200    316.32251    205.91514   -3197.1714   -2726.6656    383.53792    11939.626 
   11250    305.33087    205.57808   -3185.9361   -2731.7796    727.87026    11932.176 
   11300    318.44204    206.07507   -3202.5023   -2728.8439    390.63609    11924.804 
   11350    313.92865     206.0072   -3200.2401    -2733.295    608.95887    11917.431 
   11400    311.24591    205.79194   -3193.0647     -2730.11    859.20336    11910.133 
   11450    308.82932    205.77575   -3192.5251   -2733.1649    878.61719    11903.013 
   11500    307.36009    205.81782   -3193.9273   -2736.7525    909.16843    11896.101 
   11550      309.319    205.79634   -3193.2113   -2733.1228    1007.6783    11889.418 
   11600    313.95082    205.83139   -3194.3795   -2727.4015     1099.465    11882.995 
   11650    310.11154    205.81379   -3193.7931   -2732.5257    1302.6661    11876.894 
   11700    306.31527    205.78801   -3192.9336   -2737.3129    1446.8487    11871.193 
   11750    314.07121    206.05768   -3201.9226   -2734.7655    1196.8791    11865.969 
   11800     315.8717    206.07895   -3202.6317   -2732.7965    1110.7275    11861.126 
   11850    302.73337    205.70355   -3190.1184   -2739.8254    1496.2234    11856.603 
   11900    299.27508    205.65263   -3188.4209   -2743.2719    1608.9287    11852.593 
   11950    315.35099    206.18237    -3206.079   -2737.0183    1175.5515    11849.129 
   12000    309.15059    205.99072   -3199.6907   -2739.8527    1421.9573    11846.036 
   12050    306.98142    205.93584   -3197.8613   -2741.2497    1539.0541    11843.387 
   12100    314.04153    206.22254   -3207.4179    -2740.305     1320.107     11841.24 
   12150    310.18862    206.08354   -3202.7847   -2741.4026    1402.8167    11839.507 
   12200    316.65512    206.38203   -3212.7343   -2741.7338    1152.5466    11838.204 
   12250    314.98517    206.36872   -3212.2905   -2743.7739    1133.2606    11837.224 
   12300    298.65702    205.89926   -3196.6419   -2752.4122    1534.3065    11836.555 
   12350    301.08504    206.09121   -3203.0405   -2755.1993    1354.3993    11836.361 
   12400    302.94635    206.10077   -3203.3591   -2752.7494    1288.9819    11836.605 
   12450    301.91755    206.20406    -3206.802   -2757.7225    1279.1106    11837.231 
   12500    307.51059    206.49484   -3216.4947    -2759.096    1019.4604    11838.211 
   12550    305.77688     206.3365   -3211.2166   -2756.3967     1050.135    11839.448 
   12600    301.61056    206.22893    -3207.631   -2759.0081    1082.8351    11840.925 
   12650    299.31577    206.24385   -3208.1285    -2762.919    1038.1002    11842.668 
   12700    293.53547    206.14535   -3204.8449   -2768.2331    1168.2631    11844.676 
   12750    302.72327    206.51135   -3217.0449   -2766.7669    827.55723    11846.973 
   12800    290.07315     206.2363   -3207.8765   -2776.4147     1031.662    11849.444 
   12850    296.44957    206.37947    -3212.649   -2771.7028    937.90199    11852.136 
   12900    293.52653    206.27795   -3209.2651   -2772.6666    1034.1312    11855.045 
   12950    299.32519    206.51652   -3217.2174   -2771.9939    754.70765    11858.172 
   13000    291.17929     206.2057   -3206.8567   -2773.7496    876.02923    11861.436 
   13050     300.2388    201.48816    -3216.272   -2769.6896    596.13294     11864.82 
   13100    301.69617    201.51725   -3217.2416   -2768.4914    496.59674    11868.219 
   13150     300.1639    201.52631   -3217.5436   -2771.0725    425.38391    11871.568 
   13200    297.03646    201.42271   -3214.0904   -2772.2712    453.86235    11874.842 
   13250    294.12362    201.39066   -3213.0219   -2775.5353     474.6809    11878.046 
   13300    303.74902    201.72502   -3224.1674   -2772.3637    190.55502    11881.159 
   13350    285.27122     201.1922   -3206.4066   -2782.0872    568.05097    11884.108 
   13400    296.95577    201.60385   -3220.1285   -2778.4293    227.54431    11887.023 
   13450    300.44965    201.80811   -3226.9371    -2780.041    81.019739    11889.772 
   13500    289.86615    201.53002   -3217.6673   -2786.5134    305.71376    11892.282 
   13550     292.2583    201.53293   -3217.7645   -2783.0524    302.13054    11894.648 
   13600     282.7852     201.1905   -3206.3499   -2785.7284    544.93835    11896.897 
   13650    302.23929    201.69691   -3223.2305   -2773.6725   -37.992222    11899.083 
   13700     293.2344    201.42098   -3214.0327   -2777.8687    186.79899    11900.993 
   13750    281.58806    201.12469   -3204.1563   -2785.3154    505.57346    11902.726 
   13800    294.17253    201.48839   -3216.2798   -2778.7204    150.87387    11904.388 
   13850     295.5444    201.53113   -3217.7043   -2778.1044    52.160688    11905.843 
   13900    288.29805    201.29926   -3209.9754   -2781.1539    175.58564    11907.053 
   13950    292.72587    201.47892   -3215.9639   -2780.5563     22.50228     11908.06 
   14000    290.60935    201.36681   -3212.2271   -2779.9677    124.11552    11908.802 
   14050    289.53263    206.36297   -3212.0992   -2781.4413    142.88891    11909.321 
   14100    296.32781    206.48098   -3216.0327   -2775.2675    11.820937    11909.636 
   14150    283.82628    206.02193   -3200.7312   -2778.5611    386.80269    11909.732 
   14200    293.04217      206.385   -3212.8333   -2776.9553    123.24395    11909.728 
   14250    294.77486     206.3991   -3213.3034   -2774.8482       136.89     11909.54 
   14300    290.53983    206.38348   -3212.7827   -2780.6267    199.85316    11909.161 
   14350    287.12797    206.15948   -3205.3161    -2778.235    339.99949    11908.618 
   14400    281.60787    205.92876   -3197.6253   -2778.7549    523.23813    11907.984 
   14450    285.76718    206.11083   -3203.6944   -2778.6374    344.93516    11907.352 
   14500    297.68904    206.38273   -3212.7576   -2769.9677    22.624205    11906.632 
   14550    291.12376    206.22939   -3207.6465   -2774.6219    216.74721    11905.674 
   14600     278.7912     205.8359   -3194.5299   -2779.8491    600.84294    11904.588 
   14650    284.31056    206.05011   -3201.6703   -2778.7799    488.45119    11903.536 
   14700    284.49558     205.9801   -3199.3367   -2776.1711    561.24409    11902.487 
   14750    283.97256    205.91041   -3197.0136   -2774.6259    619.43384    11901.471 
   14800    300.40649    206.41749   -3213.9164   -2767.0845    212.20554    11900.471 
   14850    295.43689    206.17703   -3205.9011   -2766.4611    463.36872    11899.353 
   14900    288.45317    206.00535   -3200.1782    -2771.126    718.55265    11898.216 
   14950    304.57998    206.45075   -3215.0251   -2761.9855    283.68128    11897.141 
   15000    297.51995    206.16535   -3205.5116   -2762.9732    496.85829    11895.988 
   15050    290.25442    205.90659   -3196.8865    -2765.155    810.46159    11894.822 
   15100    299.59021    206.08929   -3202.9765   -2757.3588    634.52686    11893.782 
   15150    302.17407    206.26596   -3208.8654   -2759.4043    494.41612    11892.809 
   15200     293.6792    205.89915   -3196.6385    -2759.813    815.57839    11891.846 
   15250    290.16368     205.7922   -3193.0732   -2761.4767    973.99618    11891.029 
   15300    301.62662    206.17518   -3205.8392   -2757.1925    635.92542    11890.426 
   15350    289.80701    205.80185   -3193.3949    -2762.329     944.8672    11889.928 
   15400    297.38624    206.04303   -3201.4343   -2759.0948    738.40693     11889.62 
   15450    314.39702    206.49838   -3216.6125   -2748.9708    361.97468    11889.409 
   15500    296.81683    206.00967   -3200.3224   -2758.8299    936.80477    11889.165 
   15550    290.57254    205.77997   -3192.6658   -2760.4612    1090.8741    11889.109 
   15600    309.34161    206.30467   -3210.1557   -2750.0335    567.07859    11889.286 
   15650    287.77066    205.63072   -3187.6907   -2759.6537    1117.7903    11889.542 
   15700    293.92643     205.8185   -3193.9499   -2756.7566    973.59082    11890.066 
   15750     314.2754    206.32219   -3210.7397   -2743.2789    491.34292    11890.814 
   15800    311.74984    206.16237   -3205.4125   -2741.7082    625.16805    11891.557 
   15850    292.23948    205.69497   -3189.8325   -2755.1484    1156.9541    11892.352 
   15900    295.52812    205.80824   -3193.6079   -2754.0322    1059.0126    11893.434 
   15950    303.24801    205.98581    -3199.527   -2748.4685     841.9262    11894.773 
   16000    307.01421    206.08313   -3202.7709   -2746.1105    662.37168     11896.26 
   16050     302.5979    200.94265   -3198.0882   -2747.9968    762.42383    11897.812 
   16100    301.15744     200.8769   -3195.8968   -2747.9479    836.45792    11899.445 
   16150    320.61243     201.4332     -3214.44   -2737.5533    268.65817     11901.18 
   16200    316.88936    201.28633   -3209.5442   -2738.1953    370.89852    11902.788 
   16250    313.52183    201.26003   -3208.6677   -2742.3277     461.9767    11904.259 
   16300    314.91814     201.2722   -3209.0734   -2740.6565    504.38567    11905.663 
   16350     305.4288    200.95322   -3198.4405   -2744.1383    826.54875    11907.025 
   16400    300.16037     200.7539   -3191.7967   -2745.3309    865.00044    11908.489 
   16450    304.70878    200.92269    -3197.423   -2744.1918    573.81311    11910.093 
   16500    305.23505     200.9165   -3197.2167   -2743.2027    652.19248    11911.713 
   16550    295.35518    200.55281   -3185.0936   -2745.7752    930.67903     11913.38 
   16600    316.58322    201.18142   -3206.0474   -2735.1539    325.68728    11915.167 
   16650    298.68521    200.68169   -3189.3896    -2745.118    812.68447    11916.875 
   16700    300.64983    200.77194   -3192.3979   -2745.2041     749.0235    11918.666 
   16750    294.87534    200.60296   -3186.7654   -2748.1607    804.10203    11920.566 
   16800    311.35751    201.05496   -3201.8321   -2738.7114    369.88764    11922.543 
   16850    311.66742    201.12349   -3204.1163   -2740.5346    380.07503    11924.424 
   16900    308.67393    201.10688   -3203.5628   -2744.4337    481.98381    11926.183 
   16950    312.79932      201.194   -3206.4666   -2741.2013    469.05604    11927.871 
   17000    310.40881     201.1192   -3203.9733   -2742.2637     500.4473     11929.49 
   17050    301.21015    205.90607   -3196.8691   -2748.8418     561.6073    11931.061 
   17100    288.75644     205.4709   -3182.3632   -2752.8599    832.09536    11932.654 
   17150    300.13447    205.87382   -3195.7939   -2749.3666    415.11361     11934.35 
   17200    290.66978    205.57115   -3185.7049   -2753.3557    645.86409    11936.015 
   17250    301.04112    205.85455   -3195.1516   -2747.3758    440.82542    11937.704 
   17300    301.88299    205.83828   -3194.6092   -2745.5811    359.07831    11939.337 
   17350    310.58494    206.10658   -3203.5528   -2741.5812    60.404819    11940.842 
   17400    307.75775    206.02662   -3200.8873    -2743.121    107.38334    11942.108 
   17450    291.89891      205.584   -3186.1333   -2751.9558    525.46835    11943.154 
   17500    294.30198    205.76646   -3192.2155   -2754.4636    427.89509    11944.149 
   17550    301.44959    205.93139    -3197.713   -2749.3296    229.60322    11945.088 
   17600    289.58428    205.52997   -3184.3322   -2753.5976    565.66635    11945.905 
   17650    285.56776    205.40263   -3180.0878   -2755.3274    666.30828     11946.72 
   17700    291.45475    205.59567   -3186.5223   -2753.0055    464.45893    11947.589 
   17750    299.95883    205.82836   -3194.2787   -2748.1127    241.29612     11948.42 
   17800    296.08981     205.7531     -3191.77   -2751.3589    301.19028    11949.119 
   17850      299.913    205.80258   -3193.4194   -2747.3216    183.61479    11949.676 
   17900     300.7589    205.86323   -3195.4409   -2748.0848    138.13176    11950.055 
   17950    302.49426    205.92756   -3197.5854   -2747.6481    139.88146     11950.23 
   18000    294.99229    205.73696   -3191.2319   -2752.4533    358.14862    11950.212 
   18050    296.55952    210.67887   -3189.2955   -2748.1857    359.89662    11950.107 
   18100    303.81403    210.87751    -3195.917   -2744.0166    197.98018    11949.915 
   18150    280.57303     210.1839   -3172.7966   -2755.4654    897.60089    11949.621 
   18200    298.21969     210.7925   -3193.0833   -2749.5041    407.02826    11949.469 
   18250    295.56427    210.72493    -3190.831   -2751.2015    454.33168    11949.306 
   18300    295.98195    210.77719   -3192.5731   -2752.3224    427.58501    11949.102 
   18350    305.37503    211.04332    -3201.444   -2747.2218    176.19386    11948.854 
   18400    292.78446    210.67958   -3189.3193   -2753.8246      418.089    11948.467 
   18450    288.76947    210.43424   -3181.1412   -2751.6185    523.04922    11948.041 
   18500    296.77866    210.79316   -3193.1053   -2751.6695     310.1444    11947.609 
   18550    294.50675    210.71496   -3190.4986   -2752.4421    475.99262    11947.099 
   18600    295.43135     210.6968   -3189.8935   -2750.4617    507.52682    11946.576 
   18650    283.12146     210.3069   -3176.8966   -2755.7749    783.56691    11946.078 
   18700    292.34387    210.64476   -3188.1587   -2753.3194    473.40804    11945.703 
   18750    303.19551    210.95749   -3198.5831   -2747.6028    181.84617    11945.328 
   18800    297.52471    210.74461   -3191.4871   -2748.9416     380.5458    11944.813 
   18850    292.68956    210.56602    -3185.534   -2750.1804    578.24876    11944.231 
   18900    290.22144    210.43351   -3181.1169   -2749.4345      697.155    11943.688 
   18950    297.99552     210.6875   -3189.5833   -2746.3376    431.53782    11943.243 
   19000    308.65799    210.99633   -3199.8778   -2740.7724    171.49349     11942.76 
   19050    307.55273    210.94496   -3198.1652   -2740.7039    271.58243    11942.118 
   19100    298.29307    210.61976   -3187.3255   -2743.6372    608.25833     11941.36 
   19150    285.59332    210.26662   -3175.5539   -2750.7555    960.73668    11940.654 
   19200    293.77762    210.46303    -3182.101   -2745.1291    790.10281    11940.172 
   19250    303.26918    210.75048   -3191.6827   -2740.5928    504.93273    11939.855 
   19300    307.36731    210.83786   -3194.5952   -2737.4097    379.51574    11939.556 
   19350    302.58225    210.71847   -3190.6156   -2740.5475    595.54714    11939.208 
   19400    295.06133    210.40784   -3180.2613   -2741.3799    881.88259    11938.907 
   19450    301.94729    210.75339   -3191.7795   -2742.6558     601.9428    11938.774 
   19500    293.13762     210.4018     -3180.06     -2744.04    807.91066    11938.734 
   19550    301.92912    210.62091   -3187.3636   -2738.2669    625.00825    11938.815 
   19600    294.56692    210.36942   -3178.9808   -2740.8348    866.38344    11938.997 
   19650    304.42227    210.66454    -3188.818    -2736.013    594.49676    11939.333 
   19700    298.77513    210.55697   -3185.2323    -2740.827    687.13251    11939.733 
   19750    300.68338    210.57575   -3185.8583   -2738.6146    726.52242    11940.214 
   19800    299.20638    210.50434   -3183.4779   -2738.4311    903.03212    11940.821 
   19850    307.06413    210.64614   -3188.2047   -2731.4701    711.53254    11941.612 
   19900    295.03556    210.31933    -3177.311    -2738.468     1000.975    11942.527 
   19950    290.11037    210.17963   -3172.6545   -2741.1373    1115.9149    11943.678 
   20000    306.94166    210.71502   -3190.5007   -2733.9482    585.73559    11945.113 
   20050    306.85259     210.5937   -3186.4565   -2730.0366    617.94914    11946.616 
   20100    305.97102    210.50747   -3183.5823   -2728.4736    679.10951    11948.153 
   20150    307.71924      210.575   -3185.8332   -2728.1242    657.42048    11949.761 
   20200    301.35702     210.5071     -3183.57   -2735.3243    802.59211    11951.441 
   20250    302.39193    210.47336   -3182.4454   -2732.6604    724.12038    11953.261 
   20300    310.19281    210.66206   -3188.7353    -2727.347    461.28853    11955.158 
   20350    300.88843    210.32295   -3177.4316   -2729.8829    717.36724    11957.035 
   20400    310.55633     210.6713   -3189.0435   -2727.1144    421.49868    11958.966 
   20450    306.21502    210.41017   -3180.3392   -2724.8675    559.30315    11960.856 
   20500    299.53486     210.2922   -3176.4066   -2730.8712    672.23453    11962.764 
   20550    304.42807    210.31572   -3177.1906   -2724.3769    544.36534    11964.735 
   20600    300.44053    210.18422   -3172.8074   -2725.9249    679.92757    11966.715 
   20650    289.10334    209.98492    -3166.164   -2736.1447    895.06609    11968.783 
   20700    315.59601    210.77915   -3192.6385   -2723.2133    231.46219    11971.001 
   20750    304.62836    210.29429   -3176.4763   -2723.3647    645.58832    11973.126 
   20800    307.55627    210.27937   -3175.9789   -2718.5123    620.30882    11975.264 
   20850    295.46898    209.90259   -3163.4198   -2723.9321    896.64039    11977.467 
   20900    307.25747    210.22644   -3174.2148   -2717.1926    600.24671    11979.838 
   20950    326.99971    210.68525   -3189.5083    -2703.121    74.150084    11982.236 
   21000    316.26952     210.2907   -3176.3568   -2705.9299    436.69104    11984.415 
   21050    308.76429    209.96007   -3165.3358   -2706.0723     849.3815    11986.519 
   21100    308.53371     209.8786   -3162.6201   -2703.6996    966.10685     11988.77 
   21150    316.84035    209.97631   -3165.8769   -2694.6009    800.15803    11991.223 
   21200    319.61004    210.09402   -3169.8006   -2694.4048    750.28112    11993.807 
   21250    321.87791    210.12048   -3170.6827   -2691.9138    752.67809    11996.481 
   21300     316.4546    209.88759   -3162.9195   -2692.2173    930.95285     11999.26 
   21350     319.0377    209.88588   -3162.8627   -2688.3183    864.37278    12002.205 
   21400    311.32204    209.60208   -3153.4026   -2690.3347    1128.7729    12005.316 
   21450    314.20433    209.57072   -3152.3574   -2685.0023    1141.4451    12008.717 
   21500    318.48352    209.61426   -3153.8088   -2680.0887     1085.207    12012.388 
   21550    303.77585    209.25485   -3141.8284   -2689.9849    1345.4699    12016.357 
   21600    321.96287    209.74408    -3158.136   -2679.2406    761.28794    12020.686 
   21650    315.45555    209.46746   -3148.9153   -2679.6991    871.41158    12025.147 
   21700    327.58908    209.83065   -3161.0218   -2673.7579    516.61913    12029.705 
   21750    328.88182    209.84101   -3161.3669   -2672.1802     400.0509    12034.223 
   21800    315.60058    209.43734   -3147.9114   -2678.4795    667.05499    12038.642 
   21850    317.96253    209.47856   -3149.2854   -2676.3403    638.80539    12043.065 
   21900    314.05293    209.35856   -3145.2853   -2678.1554    671.87567    12047.534 
   21950    322.62758     209.6695     -3155.65   -2675.7659     359.6393    12052.009 
   22000    325.13437    209.67264   -3155.7546   -2672.1419     315.5169    12056.364 
   22050    306.79487    214.07208   -3135.7359   -2679.4018    823.54076    12060.616 
   22100    310.59407    214.21482    -3140.494   -2678.5089    667.22715    12064.958 
   22150    314.88555    214.42961   -3147.6537   -2679.2853    404.86017    12069.365 
   22200    321.70331    214.57762   -3152.5873    -2674.078    239.34869    12073.676 
   22250    319.98735    214.51992    -3150.664    -2674.707    254.14099    12077.815 
   22300    310.26337    214.26507   -3142.1689   -2680.6757    418.86836    12081.807 
   22350    303.24028     214.0036   -3133.4532   -2682.4063    628.46607    12085.721 
   22400    306.72815    214.14075   -3138.0252   -2681.7903    553.02469     12089.67 
   22450    304.99761    214.03794   -3134.5978    -2680.937    538.61784    12093.627 
   22500    297.34843    213.84218   -3128.0727   -2685.7894    664.38605    12097.569 
   22550    294.42113    213.80394    -3126.798   -2688.8688    610.39029    12101.573 
   22600     309.7084    214.29402   -3143.1339   -2682.4661    143.94109    12105.591 
   22650    302.30693    214.07844   -3135.9481   -2686.2895    229.51633    12109.421 
   22700     306.0202    214.23298   -3141.0992   -2685.9174   -64.641324    12113.065 
   22750    313.14777    214.48602   -3149.5338   -2683.7503   -350.39728    12116.383 
   22800    315.63254     214.6015   -3153.3835    -2683.904   -416.35871    12119.218 
   22850    297.78562    214.04336   -3134.7788   -2691.8452   -18.315145    12121.571 
   22900    301.15004    214.19246   -3139.7485   -2691.8107   -167.82042    12123.601 
   22950    300.16554    214.24667   -3141.5557   -2695.0822   -159.56464    12125.283 
   23000    306.03209    214.43736    -3147.912   -2692.7125   -359.45166    12126.585 
   23050    290.57989     213.9097   -3130.3235   -2698.1079     24.52797    12127.464 
   23100    302.94354    214.38567    -3146.189   -2695.5835   -406.53836    12128.029 
   23150    311.71762    214.73754   -3157.9179   -2694.2616    -808.6923    12128.122 
   23200     315.4678    214.88498   -3162.8328   -2693.5984   -899.43979    12127.528 
   23250    310.55698     214.6877   -3156.2565   -2694.3265   -612.81851      12126.2 
   23300     287.0018    213.95456   -3131.8185   -2704.9251    193.80332    12124.331 
   23350    293.52929    214.14513   -3138.1708   -2701.5683   -16.279371    12122.288 
   23400    319.11419    214.99068   -3166.3559   -2691.6978   -810.26648    12119.961 
   23450    286.80496    214.03737    -3134.579   -2707.9784    65.757037    12117.048 
   23500    288.65949    214.14589   -3138.1962   -2708.8371    82.288703    12113.885 
   23550    290.23148    214.23633   -3141.2111   -2709.5138    120.55873    12110.562 
   23600    300.61925     214.6027   -3153.4232   -2706.2749   -117.10598    12107.064 
   23650    301.47354    214.68544   -3156.1813   -2707.7623   -188.23746    12103.308 
   23700    294.54951    214.42486   -3147.4955   -2709.3754   -13.656948    12099.243 
   23750    300.48805    214.49458   -3149.8194   -2702.8663   -152.75982    12094.934 
   23800    301.72076    214.65162   -3155.0539   -2706.2671   -171.87847    12090.327 
   23850    294.33855    214.49336   -3149.7786   -2711.9723    25.564557    12085.424 
   23900    287.28634    214.41472   -3147.1573   -2719.8406    111.25346     12080.33 
   23950     302.8932    214.90421   -3163.4735   -2712.9428   -346.24241    12075.061 
   24000    300.75333    214.82111   -3160.7036   -2713.3558   -232.81322    12069.428 
   24050    297.63228    209.76578   -3158.8593   -2716.1538   -59.264856    12063.457 
   24100    310.76912    210.19184   -3173.0612   -2710.8156   -363.78545    12057.214 
   24150    297.34516    209.80505   -3160.1684     -2717.89    122.86381      12050.6 
   24200    284.38792    209.45328   -3148.4425    -2725.437    580.41838    12043.848 
   24250     294.4747    209.77835   -3159.2783   -2721.2695    360.44198    12037.178 
   24300    301.05375     210.0538   -3168.4598   -2720.6652    158.77501    12030.509 
   24350    313.14778     210.3145   -3177.1501   -2711.3665   -128.62385    12023.699 
   24400    305.21435    210.21481   -3173.8269   -2719.8436    49.229893    12016.636 
   24450    299.51889    210.09756   -3169.9188   -2724.4071    250.52906    12009.409 
   24500     299.6644    210.07984   -3169.3279   -2723.5999    401.45869    12002.111 
   24550    309.84697    210.47092   -3182.3641   -2721.4902    212.75196      11994.8 
   24600    302.33789    210.27836   -3175.9454   -2726.2407     393.2693    11987.435 
   24650    315.68402    210.66051   -3188.6838   -2719.1277    78.230815    11980.041 
   24700    307.69578    210.40925   -3180.3084   -2722.6343    433.80176    11972.524 
   24750    304.69933    210.44726   -3181.5754   -2728.3583    563.01163    11965.016 
   24800    301.86385    210.30163   -3176.7209   -2727.7213    734.90039    11957.623 
   24850    301.55931    210.39252   -3179.7506    -2731.204    832.88517    11950.403 
   24900    298.51337     210.2904   -3176.3465   -2732.3305    911.34679    11943.425 
   24950    311.65075    210.74726   -3191.5755   -2728.0186    501.30501    11936.693 
   25000    297.07463    210.41221   -3180.4069   -2738.5309    847.48655    11930.078 
   25050    318.94527    206.09651    -3203.217   -2728.8101    334.03911    11923.639 
   25100    305.68259    205.66096   -3188.6988   -2734.0191    811.00426     11917.21 
   25150    304.48866    205.64457   -3188.1524   -2735.2485    890.21974    11910.952 
   25200    310.33249    205.86879   -3195.6264   -2734.0303    755.18893    11904.926 
   25250    294.74695    205.47297   -3182.4323   -2744.0185    1305.3948    11899.089 
   25300     296.1948    205.61354   -3187.1181   -2746.5508    1267.3601    11893.692 
   25350    313.25493    206.05347   -3201.7823   -2735.8393    846.60141    11888.708 
   25400    310.79605    206.10943   -3203.6478   -2741.3623    910.47474    11883.944 
   25450    317.91285    206.31906   -3210.6352    -2737.764    732.96577      11879.4 
   25500    305.63349    205.97351   -3199.1169   -2744.5103    1133.7123    11875.034 
   25550    312.05939    206.10201   -3203.4003   -2739.2356    1037.5297    11870.991 
   25600    307.57898    205.93767   -3197.9223   -2740.4219    1212.7837    11867.241 
   25650    296.57424    205.75545   -3191.8484   -2750.7167    1434.5158    11863.874 
   25700    309.05915    206.11064    -3203.688   -2743.9859    1128.8643    11860.973 
   25750    301.10448    205.88632   -3196.2105   -2748.3404    1354.4231    11858.422 
   25800    297.80538    205.81422   -3193.8074   -2750.8445    1442.7888    11856.304 
   25850    305.58833    206.11167   -3203.7224    -2749.183    1270.9017    11854.655 
   25900    292.96974    205.68761   -3189.5871   -2753.8168    1633.8647     11853.44 
   25950    303.28874    206.10977   -3203.6591   -2752.5401    1203.4523    11852.743 
   26000    299.90774    205.96883    -3198.961    -2752.871    1219.4898    11852.431 
   26050    301.11822    206.10899   -3203.6331   -2755.7426    1144.2883    11852.464 
   26100    310.61418    206.38436   -3212.8121    -2750.797    895.63606    11852.785 
   26150    297.21036    206.07489   -3202.4963   -2760.4184    1193.2613    11853.314 
   26200    305.28815    206.36404   -3212.1345   -2758.0415    993.65217    11854.133 
   26250    302.22188    206.19583   -3206.5278   -2756.9956    1113.1213    11855.209 
   26300    299.63753    206.23474   -3207.8247   -2762.1366     1078.869    11856.562 
   26350    305.64375    206.39424   -3213.1415   -2758.5195    864.58717    11858.157 
   26400    294.61017    206.10927   -3203.6423    -2765.432    1113.8409    11859.941 
   26450    295.48323    206.14838   -3204.9459    -2765.437    1026.1911    11862.006 
   26500    295.26248    206.12475   -3204.1585   -2764.9779     975.5451    11864.326 
   26550    301.33597    206.29329   -3209.7763   -2761.5619    809.34905    11866.844 
   26600    311.81964    206.54587   -3218.1956   -2754.3875    555.05975    11869.473 
   26650    321.40883    206.81992   -3227.3308   -2749.2595     321.3525    11872.082 
   26700    289.10939    205.86897   -3195.6323    -2765.604    1156.9335    11874.607 
   26750    292.86478    205.98403   -3199.4676   -2763.8534    1024.8802    11877.372 
   26800    300.21392    206.16779    -3205.593   -2759.0475    841.51435     11880.39 
   26850    298.72158    206.15903   -3205.3008   -2760.9751     872.3929    11883.564 
   26900    304.67538    206.30704   -3210.2346    -2757.053    631.03773    11886.881 
   26950    308.85531     206.3419   -3211.3968   -2751.9979    534.43267    11890.231 
   27000    289.01701    205.73591   -3191.1971   -2761.3062    1115.4774    11893.588 
   27050    301.79182    206.17588   -3205.8626   -2756.9702    673.12536    11897.153 
   27100    300.25165    206.15651   -3205.2169   -2758.6153    559.17532    11900.798 
   27150    296.77892    206.12132   -3204.0439   -2762.6077    538.05764    11904.432 
   27200    298.29081     206.0605   -3202.0167   -2758.3317    467.69121    11908.047 
   27250    297.26426     206.0044   -3200.1466   -2757.9885     469.4423      11911.6 
   27300    293.01654    205.96343   -3198.7809    -2762.941    457.89381     11915.09 
   27350      290.199    205.89053   -3196.3512   -2764.7021    579.23544    11918.519 
   27400    299.85667    206.07642   -3202.5472   -2756.5331    416.13892    11921.922 
   27450    283.54414     205.5022   -3183.4067   -2761.6563    748.19623    11925.266 
   27500    293.67508    205.91697   -3197.2322   -2760.4128    227.11748    11928.658 
   27550    313.30834    206.58252   -3219.4172   -2753.3948   -398.46425    11931.858 
   27600     284.3631    205.68079   -3189.3595   -2766.3909    423.95091     11934.62 
   27650    285.40193    205.69772   -3189.9239   -2765.4101    451.79925    11937.265 
   27700    291.64573    205.86734    -3195.578   -2761.7771    273.63501    11939.858 
   27750     290.2321    205.83673   -3194.5576   -2762.8594    232.35555    11942.304 
   27800     292.4145    205.89878   -3196.6262   -2761.6817    76.906592    11944.583 
   27850    305.21627    206.25324   -3208.4413   -2754.4552   -339.01632     11946.61 
   27900    295.54246    205.94227   -3198.0757   -2758.4787   -14.910421    11948.208 
   27950    301.23437    206.08692   -3202.8973    -2754.834   -52.125667    11949.472 
   28000     305.4608    206.18231   -3206.0771   -2751.7273   -182.85273     11950.43 
   28050    290.51843    210.73067   -3191.0222   -2758.8981     271.6923    11951.032 
   28100    275.26179     210.2147   -3173.8233   -2764.3922    775.32101    11951.514 
   28150    287.55398    210.58505   -3186.1685   -2758.4537    402.23512    11952.112 
   28200    284.55404    210.45802    -3181.934   -2758.6815    459.84541     11952.69 
   28250    286.88465    210.58241   -3186.0803   -2759.3612    396.99732    11953.242 
   28300    307.59312     211.1934   -3206.4468   -2748.9253   -217.69754    11953.717 
   28350    305.29968     211.1097   -3203.6567   -2749.5466   -107.61594    11953.839 
   28400    282.76944    210.47574   -3182.5246   -2761.9265    592.02125     11953.67 
   28450    292.75801    210.71703   -3190.5675   -2755.1122    330.84999    11953.501 
   28500    295.91932    210.73783   -3191.2609   -2751.1034    290.09895    11953.262 
   28550    298.63076    210.77455   -3192.4851   -2748.2945     312.5128     11952.92 
   28600    297.02394     210.7025   -3190.0834   -2748.2828    385.87278    11952.481 
   28650     296.9255    210.66893   -3188.9645   -2747.3103    505.38511    11951.983 
   28700    290.10681    210.40795   -3180.2651   -2748.7532    732.43664    11951.508 
   28750     297.3332    210.56132   -3185.3775   -2743.1169    515.55233    11951.126 
   28800    296.12231    210.46479   -3182.1596   -2741.7001    626.05482    11950.771 
   28850    294.00689    210.26814   -3175.6048   -2738.2918    789.98457    11950.492 
   28900     302.0527    210.54962   -3184.9872   -2735.7067    529.89686    11950.346 
   28950    296.13088    210.34588   -3178.1959   -2737.7236    689.25334    11950.239 
   29000    281.39476    209.92263   -3164.0878   -2745.5344     1099.566    11950.238 
   29050    311.11262    205.81119   -3193.7065     -2730.95    325.53382    11950.486 
   29100    314.85381    205.82108   -3194.0358   -2725.7147    269.05592    11950.677 
   29150    312.86927    205.72212   -3190.7372   -2725.3679    480.05428    11950.713 
   29200    307.03169    205.51224   -3183.7413   -2727.0549    678.84522    11950.717 
   29250    311.13014    205.64358   -3188.1194   -2725.3369     593.4486     11950.78 
   29300    312.31844    205.60478   -3186.8261    -2722.276    619.93224    11950.878 
   29350     317.1251    205.68701   -3189.5671   -2717.8676     528.0873    11950.984 
   29400    302.68417    205.19645    -3173.215   -2722.9952    908.55746    11951.105 
   29450    289.56264     204.9226   -3164.0866   -2733.3842    1209.1916    11951.435 
   29500    309.40643    205.48417   -3182.8057   -2722.5871    762.54146    11952.069 
   29550    307.23933    205.35491   -3178.4969   -2721.5016    776.60417    11952.849 
   29600    323.10072    205.78658    -3192.886   -2712.2981    327.64285    11953.696 
   29650    312.64275    205.49581   -3183.1936   -2718.1612    672.68034    11954.454 
   29700    305.00458    205.27521   -3175.8404   -2722.1692    956.00132    11955.276 
   29750    301.90443    205.05245   -3168.4151   -2719.3551    1075.0112    11956.313 
   29800    309.59398     205.2743   -3175.8101   -2715.3125    813.27049    11957.595 
   29850    314.91673    205.46106   -3182.0352   -2713.6205     654.5293    11959.011 
   29900    315.99505    205.52067   -3184.0222   -2714.0035    524.21634    11960.474 
   29950     308.0741    205.29192   -3176.3973   -2718.1605    652.04697    11961.922 
   30000    315.37103    205.60148   -3186.7162   -2717.6256     478.6514    11963.379 
   30050    311.70764    210.43707   -3181.2356   -2717.5941    594.52802    11964.826 
   30100    313.10004    210.42498   -3180.8325     -2715.12    567.64586    11966.293 
   30150    318.64623     210.6243   -3187.4767   -2713.5146    376.69386    11967.756 
   30200    309.85028    210.37686   -3179.2286   -2718.3498    540.78806    11969.161 
   30250    305.52367    210.18013    -3172.671   -2718.2277    742.00853    11970.574 
   30300    299.04938    209.98838   -3166.2792    -2721.466    984.23098    11972.109 
   30350    307.78039    210.32343   -3177.4476   -2719.6476    711.93687    11973.836 
   30400    307.79877    210.30393   -3176.7976   -2718.9703    609.64642    11975.679 
   30450    313.85244    210.45486   -3181.8286   -2714.9969    419.82279    11977.552 
   30500    302.48297    210.10568   -3170.1893   -2720.2689    727.22792    11979.393 
   30550    307.27919     210.2824     -3176.08   -2719.0255    532.18506    11981.308 
   30600    307.73714    210.33206   -3177.7353   -2719.9996    443.38065    11983.232 
   30650    298.46473    210.12543   -3170.8476   -2726.9039     598.4066    11985.122 
   30700    307.13104    210.40857   -3180.2857   -2723.4516     309.8344    11987.012 
   30750    299.97767    210.15787   -3171.9291    -2725.735    523.66982    11988.831 
   30800     302.7802    210.22272   -3174.0908   -2723.7282    465.86355    11990.625 
   30850    302.62474    210.18717   -3172.9057   -2722.7744    424.78215    11992.381 
   30900    290.54167    209.79433   -3159.8111   -2727.6524    708.73573    11994.116 
   30950    304.07243    210.24777   -3174.9256   -2722.6409    367.89998    11995.919 
   31000    295.88838    210.04615   -3168.2049   -2728.0933    561.58385    11997.677 
   31050    309.51763    215.49347   -3183.1158   -2722.7317    95.344163    11999.411 
   31100    305.09836    215.30443   -3176.8142   -2723.0035    102.38394    12000.964 
   31150    302.26969    215.23393   -3174.4644   -2724.8611    101.65436    12002.304 
   31200    292.51956    214.97301   -3165.7669   -2730.6662    341.71356    12003.462 
   31250     287.3876    214.81113   -3160.3711   -2732.9039    483.45531    12004.546 
   31300    298.32747    215.03914   -3167.9712   -2724.2317    324.63489    12005.607 
   31350    297.30838    215.06545   -3168.8484   -2726.6247    324.62803    12006.602 
   31400    304.74872    215.37401   -3179.1337   -2725.8431    -48.95807     12007.49 
   31450    299.71345    215.28297   -3176.0992   -2730.2981    26.127962     12008.13 
   31500    305.86622    215.42383   -3180.7944   -2725.8416   -97.883875    12008.517 
   31550    302.85299    215.35866   -3178.6222   -2728.1513   -19.543405    12008.601 
   31600    284.43524    214.83991   -3161.3302   -2738.2544    482.16154    12008.445 
   31650    294.06349    215.13287   -3171.0958   -2733.6986    196.44948    12008.264 
   31700    306.19891    215.46656   -3182.2186   -2726.7709   -90.536947    12007.937 
   31750    284.48573     214.8191   -3160.6365   -2737.4856    542.49902    12007.357 
   31800    289.08357    214.94429   -3164.8098   -2734.8198    429.04066    12006.779 
   31850    292.12007    215.04535   -3168.1782   -2733.6718    357.65623    12006.194 
   31900    291.12622    215.02797   -3167.5989   -2734.5707    360.42941     12005.57 
   31950    302.48332    215.38126   -3179.3752   -2729.4542    26.975413     12004.88 
   32000    303.39709    215.42467   -3180.8223   -2729.5421    2.2193698    12003.964 
   32050    296.16185    215.20363   -3173.4543    -2732.936    283.93294    12002.812 
   32100    286.40592    214.81078   -3160.3595   -2734.3524    513.27639    12001.576 
   32150    290.93975    214.89346   -3163.1153   -2730.3644    385.93424    12000.337 
   32200    289.07057    214.93187   -3164.3958   -2734.4252    441.97534    11999.078 
   32250     305.9671    215.47949   -3182.6497   -2727.5468   -45.312569    11997.777 
   32300    298.81405    215.28605   -3176.2017   -2731.7384    125.17331    11996.238 
   32350    298.82332    215.24337    -3174.779   -2730.3019    194.79519    11994.525 
   32400    293.55558    214.96875    -3165.625   -2728.9833     479.5803    11992.695 
   32450    301.03413    215.20822   -3173.6074    -2725.842     294.5775    11990.834 
   32500    303.15313    215.34774   -3178.2579   -2727.3406    215.15306    11988.889 
   32550    304.40293    215.38909   -3179.6363     -2726.86    249.18093    11986.832 
   32600    302.23648    215.31005   -3177.0017   -2727.4479    380.26306    11984.665 
   32650     313.8784    215.65142   -3188.3806   -2721.5103    74.683878    11982.401 
   32700    287.45893    214.85345   -3161.7818   -2734.2085    792.69244    11979.997 
   32750    295.02749    215.07088   -3169.0292   -2730.1982    710.84867    11977.713 
   32800    298.09413    215.26987   -3175.6623   -2732.2699    686.98459    11975.568 
   32850    301.09968    215.36027   -3178.6756   -2730.8127    616.05205    11973.554 
   32900    317.19277    215.85555    -3195.185   -2723.3848    152.22692    11971.593 
   32950    306.57315       215.39   -3179.6665   -2723.6622    496.63354    11969.488 
   33000    295.87106    215.16796   -3172.2652   -2732.1794    762.33408     11967.38 
   33050    296.10147    210.10492   -3170.1639   -2729.7354    705.48446    11965.425 
   33100    313.23937    210.67016   -3189.0052   -2723.0854    243.24162    11963.552 
   33150    299.45558    210.28449   -3176.1498   -2730.7323     757.7128    11961.596 
   33200    293.72427    210.15488   -3171.8295   -2734.9369    946.42106    11959.755 
   33250    310.07019    210.57302   -3185.7672   -2724.5613    509.54829    11958.123 
   33300    306.45563    210.58497   -3186.1656   -2730.3361    633.49065    11956.545 
   33350    305.46148    210.53421   -3184.4737   -2730.1229    729.18154    11955.016 
   33400    302.50365    210.45018   -3181.6728   -2731.7215    771.30025     11953.61 
   33450    308.09167    210.61097   -3187.0322   -2728.7692    611.82705    11952.317 
   33500    308.53841      210.659   -3188.6334   -2729.7059     616.0181    11951.086 
   33550    310.07113    210.65986    -3188.662   -2727.4547    603.18373    11949.919 
   33600    303.72216    210.45094   -3181.6979   -2729.9342    816.91477    11948.796 
   33650    292.92668    210.10305   -3170.1017   -2734.3954    1118.6427     11947.84 
   33700     301.8039    210.38933   -3179.6445    -2730.734    776.64905    11947.182 
   33750    310.21176    210.68988   -3189.6626   -2728.2462    490.67277    11946.661 
   33800    301.00855    210.44789   -3181.5964    -2733.869    772.01033    11946.152 
   33850    313.48788    210.87456   -3195.8185   -2729.5291    379.12797    11945.727 
   33900    303.95106    210.54615   -3184.8717   -2732.7675     623.8153    11945.268 
   33950    299.81878    210.48234   -3182.7445   -2736.7868    787.05787    11944.863 
   34000    297.52433    210.38507   -3179.5024   -2736.9575    916.94201    11944.619 
   34050    293.65974    215.29098   -3176.3659   -2739.5693    952.64246    11944.606 
   34100    299.68623    215.46613   -3182.2044   -2736.4438    686.36654    11944.818 
   34150    310.75536    215.73694   -3191.2313   -2729.0063    317.58689    11945.121 
   34200     312.3649    215.76172   -3192.0574   -2727.4383    269.31274    11945.347 
   34250    299.60171    215.44172   -3181.3906   -2735.7557    650.39176    11945.472 
   34300    294.43906    215.35726   -3178.5752   -2740.6195     777.8056    11945.685 
   34350    296.55394    215.43897   -3181.2989   -2740.1973    722.83202     11946.05 
   34400    296.30292    215.49943   -3183.3144   -2742.5862    690.59838    11946.546 
   34450    303.11574    215.78686   -3192.8953   -2742.0336    418.23883    11947.147 
   34500    283.18207    215.07858   -3169.2861   -2748.0742    928.65639    11947.776 
   34550    310.01175     215.9629   -3198.7634   -2737.6444    132.27098    11948.562 
   34600    302.02797    215.66173   -3188.7244   -2739.4807    305.18503    11949.226 
   34650    297.87131    215.53134    -3184.378    -2741.317    432.42386    11949.776 
   34700    297.37837    215.60157    -3186.719   -2744.3912    469.95833    11950.304 
   34750    277.88543    215.02666   -3167.5552   -2754.2217    1026.2764    11950.874 
   34800    305.58903    215.90328   -3196.7759   -2742.2354    192.06394    11951.648 
   34850    292.85084    215.52382   -3184.1273   -2748.5338    430.35051     11952.34 
   34900    291.75233     215.5562   -3185.2068   -2751.2473    444.41544     11952.99 
   34950    293.11779    215.60808   -3186.9359   -2750.9454    355.57882    11953.627 
   35000     292.0887    215.48789   -3182.9298     -2748.47    452.69273    11954.205 
   35050    272.14173    214.94185   -3164.7283   -2759.9381    915.25142     11954.82 
   35100    298.17759     215.7276   -3190.9199   -2747.4033    217.24337    11955.594 
   35150    297.83929    215.77489   -3192.4964   -2749.4831    204.02807    11956.291 
   35200    296.87617      215.767   -3192.2335   -2750.6527    251.37981    11956.845 
   35250    294.27314    215.68663   -3189.5542   -2751.8452    301.49604    11957.283 
   35300    293.39656    215.66137   -3188.7124   -2752.3073    288.85041    11957.634 
   35350    289.64741    215.47623    -3182.541   -2751.7124    362.54175    11957.896 
   35400     294.3026    215.67028   -3189.0092   -2751.2564    194.63445    11958.082 
   35450    286.81673    215.44679   -3181.5596   -2754.9415    508.16295    11958.154 
   35500    286.03709    215.36167   -3178.7222   -2753.2637    595.70104    11958.237 
   35550    284.86586    215.32155    -3177.385   -2753.6686     493.3094    11958.378 
   35600    292.30851     215.5678   -3185.5934   -2750.8067    309.65263    11958.515 
   35650    287.73212    215.37614   -3179.2045   -2751.2248    527.72417    11958.605 
   35700    295.71398    215.73932   -3191.3106   -2751.4584    215.43268    11958.703 
   35750    284.11045    215.41421   -3180.4736   -2757.8809    490.11423    11958.709 
   35800    287.73809     215.5359     -3184.53   -2756.5414    467.90594    11958.723 
   35850    288.53981    215.56039   -3185.3463   -2756.1652    407.84948    11958.763 
   35900    296.27868    215.76193   -3192.0643   -2751.3722    106.51676    11958.748 
   35950    303.39374    215.95449   -3198.4829   -2747.2077    -55.31702    11958.524 
   36000    286.02123    215.40411   -3180.1371   -2754.7022    441.14163    11958.078 
   36050    299.93418    210.83668   -3194.5561   -2748.4267    52.823284    11957.566 
   36100    292.17048    210.50976   -3183.6585   -2749.0771    289.33875    11956.851 
   36150    296.47619    210.74093   -3191.3644   -2750.3785    88.451163    11956.004 
   36200    300.32399     210.8291   -3194.3033   -2747.5941    -35.98981    11954.952 
   36250    308.43513    211.10935   -3203.6449    -2744.871   -199.58061    11953.611 
   36300    303.20195     210.8596   -3195.3199     -2744.33     79.47423     11951.92 
   36350     277.2767    210.11597   -3170.5322   -2758.1042    876.45319    11950.042 
   36400    295.38275    210.68725   -3189.5749   -2750.2155    389.54418    11948.308 
   36450     292.4795    210.55002   -3185.0008   -2749.9597    492.77167     11946.56 
   36500    283.82608    210.25416   -3175.1388    -2752.969    835.01168    11944.828 
   36550    305.37872    210.91959   -3197.3195   -2743.0918    271.81585    11943.226 
   36600     307.8631    210.93776   -3197.9253   -2740.0022    142.78096    11941.531 
   36650    308.03453     210.9104   -3197.0134   -2738.8354     224.5831    11939.642 
   36700    300.43209    210.68279   -3189.4264   -2742.5565     521.1387    11937.614 
   36750    296.78516    210.44822   -3181.6073   -2740.1619    712.45225    11935.584 
   36800    292.91123    210.23334   -3174.4447   -2738.7614    862.51892    11933.669 
   36850    307.88221    210.60541   -3186.8471   -2728.8957     551.7756    11931.928 
   36900     308.9424    210.58808   -3186.2692   -2726.7408    709.96942    11930.226 
   36950    305.50222     210.5141   -3183.8033   -2729.3919    889.18121    11928.626 
   37000    310.01303    210.57859   -3185.9528    -2724.832    749.20938      11927.2 
   37050    310.20427    210.61191   -3187.0636   -2725.6583    805.74244    11925.894 
   37100    296.98927     210.1641   -3172.1366   -2730.3876    1260.2004    11924.759 
   37150    294.31266    210.03579   -3167.8596   -2730.0918    1287.9651    11923.994 
   37200    324.55356    210.88838   -3196.2792   -2713.5303    511.22936    11923.589 
   37250    312.12476    210.48164   -3182.7212   -2718.4593    1009.4945     11923.25 
   37300    308.82028     210.3968   -3179.8935   -2720.5467    1141.1368    11923.135 
   37350    308.69263    210.32629    -3177.543   -2718.3861    1094.8169    11923.344 
   37400    308.69003    210.25365   -3175.1215   -2715.9685     1156.153    11923.848 
   37450    319.03386    210.56582   -3185.5274   -2710.9887    866.49764    11924.659 
   37500    327.67833    210.83126   -3194.3754   -2706.9787    603.08862    11925.641 
   37550    304.67488     210.0873   -3169.5766   -2716.3958    1185.5469    11926.703 
   37600    310.34726    210.20359   -3173.4529   -2711.8348    1048.9841    11928.068 
   37650    319.56825    210.43622   -3181.2073   -2705.8738    825.61394    11929.722 
   37700    323.70454    210.58363   -3186.1209   -2704.6349    678.56074    11931.518 
   37750     315.3047    210.39814   -3179.9378    -2710.946    839.37768     11933.42 
   37800    318.19868    210.49366    -3183.122   -2709.8256    796.76207    11935.479 
   37850    312.66839    210.28908   -3176.3026   -2711.2321    949.63017    11937.692 
   37900    306.77977    210.09523   -3169.8409   -2713.5292    1103.1245     11940.12 
   37950    287.41494     209.5065   -3150.2167   -2722.7087    1644.9654     11942.88 
   38000     312.2277    210.26387   -3175.4625   -2711.0474    960.60791     11946.17 
   38050    313.96973    205.26911   -3175.6369   -2708.6307    879.91393    11949.718 
   38100    316.19656    205.37043   -3179.0143   -2708.6958    774.59833    11953.416 
   38150    326.16817    205.67923   -3189.3077   -2704.1573    386.24654    11957.225 
   38200    319.76769    205.51498   -3183.8328   -2708.2026    449.08411    11960.964 
   38250     309.2619    205.17782    -3172.594   -2712.5903    734.96428    11964.646 
   38300     315.3559    205.37709   -3179.2364   -2710.1684     500.9824    11968.395 
   38350    321.51207     205.5498   -3184.9933   -2706.7684    265.63177    11972.107 
   38400    311.07995    205.23882   -3174.6274   -2711.9196    548.37946    11975.689 
   38450    306.19691    205.11146   -3170.3819   -2714.9372     656.9187    11979.266 
   38500    315.81226     205.3617   -3178.7232   -2708.9764    323.87994    11982.875 
   38550    314.07714    205.32355   -3177.4518   -2710.2858    282.13641    11986.373 
   38600    307.52653    205.13727   -3171.2425     -2713.82    422.25585    11989.729 
   38650    304.31278    205.16117   -3172.0389   -2719.3967    442.92698    11993.006 
   38700     303.9851    205.19535   -3173.1785   -2721.0237    331.18089    11996.229 
   38750     313.7791    205.52875   -3184.2917   -2717.5691   -65.634248    11999.329 
   38800    309.64503    205.46764   -3182.2548   -2721.6813   -15.350859    12002.126 
   38850    305.30029     205.2951   -3176.5033   -2722.3922     118.5256    12004.628 
   38900    306.23643    205.32894   -3177.6312   -2722.1278   -3.9062461    12006.897 
   38950    310.61014    205.61591   -3187.1971    -2725.188    -272.6576     12008.86 
   39000    305.06337    205.41966   -3180.6554   -2726.8967   -197.76981     12010.42 
   39050    295.73556    205.23077   -3174.3592   -2734.4749   -11.225228    12011.594 
   39100    313.80527    205.85193   -3195.0643   -2728.3027    -510.1356    12012.419 
   39150     299.1077    205.47619   -3182.5396   -2737.6395    -113.0105    12012.761 
   39200    298.43293    205.48027   -3182.6757   -2738.7793   -84.215855    12012.745 
   39250    296.61153     205.5081   -3183.6033   -2742.4162   -69.933594    12012.388 
   39300    288.26316    205.32838   -3177.6128   -2748.8432    36.510724    12011.731 
   39350    299.17337    205.58151   -3186.0504   -2741.0527   -270.35142    12010.807 
   39400    298.41281    205.48465   -3182.8217   -2738.9552   -163.94541    12009.471 
   39450    286.60426    205.23241   -3174.4137   -2748.1116    164.15102    12007.776 
   39500    303.84327    205.81355   -3193.7849   -2741.8411   -359.84101    12005.843 
   39550    297.58234    205.72695   -3190.8983   -2748.2671   -258.62236    12003.483 
   39600    291.58473    205.54241   -3184.7471    -2751.037    -116.2112    12000.711 
   39650    306.97094    206.01875   -3200.6251   -2744.0291   -553.96791    11997.568 
   39700    294.61473    205.65675   -3188.5585   -2750.3414   -177.47886    11993.895 
   39750    288.47915    205.46566   -3182.1887   -2753.0978    63.187204    11989.847 
   39800    300.20216    205.85797   -3195.2655   -2748.7376   -231.83078    11985.533 
   39850    293.28832    205.72222   -3190.7405   -2754.4964   -48.231205    11980.842 
   39900    293.39195    205.74675   -3191.5583     -2755.16    -69.22868    11975.842 
   39950    297.85734     205.8334   -3194.4466   -2751.4063   -95.281748    11970.521 
   40000    295.83815    205.73899   -3191.2995   -2751.2627    180.80984    11964.872 
   40050    282.04324    200.41024   -3180.3412   -2760.8232    616.91419    11959.066 
   40100    292.17381    200.74502   -3191.5006   -2756.9142    324.62435    11953.257 
   40150    296.74777    200.85434   -3195.1448    -2753.755    175.28256    11947.342 
   40200    297.79603    200.84205   -3194.7351    -2751.786     220.2857    11941.232 
   40250    301.71175    200.88681   -3196.2271   -2747.4537    161.16298    11934.953 
   40300    318.03074    201.40352   -3213.4506   -2740.4039   -236.55223    11928.433 
   40350    308.40461    201.28002   -3209.3341   -2750.6056    123.08516    11921.519 
   40400    294.02314    200.80797   -3193.5989   -2756.2618    675.31935    11914.408 
   40450    296.11718    200.92987   -3197.6624   -2757.2106     663.9704    11907.329 
   40500    303.72577    201.20019   -3206.6729   -2754.9038    500.31918    11900.299 
   40550    306.86432    201.33804   -3211.2681   -2754.8307    448.53954    11893.247 
   40600    298.28298    201.01442   -3200.4808   -2756.8074    747.02902    11886.153 
   40650     296.0984    200.95629   -3198.5431   -2758.1192    971.97763     11879.15 
   40700    295.64158    201.04264   -3201.4214    -2761.677    1041.4043    11872.363 
   40750    294.18471    200.96816   -3198.9387   -2761.3613    1127.6601    11865.846 
   40800    305.58423    201.34956   -3211.6521   -2757.1188    862.26994    11859.583 
   40850    303.39555    201.21839   -3207.2795   -2756.0017    989.19424    11853.493 
   40900    306.01384    201.38129   -3212.7096   -2757.5372    1027.7047    11847.619 
   40950    317.25606    201.64212   -3221.4039   -2749.5096     845.8582    11841.977 
   41000    311.08108    201.51765   -3217.2551   -2754.5455    1033.5327    11836.488 
   41050    312.36018    196.50623   -3216.8745   -2752.2624    1081.9477    11831.204 
   41100    317.02551    196.61958   -3220.6526   -2749.1012    1028.9402    11826.159 
   41150    318.26263    196.74577   -3224.8589   -2751.4673    1054.1992    11821.329 
   41200    309.46453    196.55655   -3218.5516   -2758.2465     1307.502    11816.737 
   41250     305.2453    196.41896   -3213.9652    -2759.936    1415.4707    11812.502 
   41300    305.08338    196.47158   -3215.7194    -2761.931    1303.0804    11808.677 
   41350    312.16665    196.68664   -3222.8879   -2758.5637    1185.3063    11805.188 
   41400    307.69608    196.51402   -3217.1339   -2759.4593    1452.9397        11802 
   41450    301.16423    196.33611   -3211.2038   -2763.2448      1634.19    11799.262 
   41500    315.37521    196.75807   -3225.2692   -2756.1724    1224.9889    11797.021 
   41550    307.86895     196.6177   -3220.5901   -2762.6584    1405.0574    11795.126 
   41600    314.48071    196.88049   -3229.3497   -2761.5835    1282.6403    11793.606 
   41650    309.58443    196.71723   -3223.9077   -2763.4243    1411.0302    11792.447 
   41700    322.47834    197.12825   -3237.6082   -2757.9461    1051.1832     11791.67 
   41750    302.01309    196.41506   -3213.8353   -2764.6137    1614.4643    11791.172 
   41800    309.09953    196.64941   -3221.6469   -2761.8847    1386.6112    11791.147 
   41850    316.96123    196.94858   -3231.6192   -2760.1634    1078.2712    11791.522 
   41900    309.14732    196.77453   -3225.8175   -2765.9843    1272.3833    11792.157 
   41950    312.39941    196.92184   -3230.7281   -2766.0576    1156.8223    11793.104 
   42000    307.39751    196.78865   -3226.2883   -2769.0578    1207.2064    11794.343 
   42050    302.95397     196.7472   -3224.9067   -2774.2857    1223.9722    11795.885 
   42100    299.25933    196.76604   -3225.5347   -2780.4091    1228.6072    11797.746 
   42150     294.8153    196.70644   -3223.5479   -2785.0325    1254.8101    11799.943 
   42200    299.11275    196.79849   -3226.6162   -2781.7087    1161.7639    11802.478 
   42250    305.29658    196.88626   -3229.5421   -2775.4366    993.22775    11805.308 
   42300    300.97997    196.76414   -3225.4712   -2777.7863    1033.7829    11808.371 
   42350    307.62901    196.95894   -3231.9646   -2774.3898    794.73312    11811.629 
   42400    297.19148    196.60916   -3220.3054   -2778.2556    1073.7368    11815.021 
   42450    304.17344    196.80374   -3226.7914   -2774.3564    932.85747    11818.632 
   42500    299.24763    196.70428    -3223.476   -2778.3678    986.67622    11822.417 
   42550     289.3833    196.48628   -3216.2092   -2785.7734    1152.5451    11826.421 
   42600    306.07162    197.06658   -3235.5528   -2780.2944    545.06148     11830.68 
   42650    294.76781    196.69228   -3223.0759   -2784.6312    741.34017    11834.974 
   42700    282.67954    196.34482   -3211.4939   -2791.0295    955.30387    11839.361 
   42750    300.67693    196.92149   -3230.7165   -2783.4823     374.6164    11843.895 
   42800    298.26064    196.92339   -3230.7797   -2787.1396    350.81267    11848.356 
   42850    306.85364    197.12853   -3237.6176    -2781.196      78.7817    11852.691 
   42900    304.56167    197.12113   -3237.3711   -2784.3587    14.586493    11856.785 
   42950    295.06764    196.82335    -3227.445   -2788.5543     186.1068    11860.596 
   43000    280.51193    196.36862   -3212.2874   -2795.0472    597.83923    11864.221 
   43050    276.73802    201.28342   -3209.4473   -2797.8205    720.18358    11867.853 
   43100    287.14705    201.63128   -3221.0427   -2793.9333    370.48203    11871.583 
   43150     293.9177    201.81624    -3227.208   -2790.0277    65.476687    11875.236 
   43200    286.85945    201.56965   -3218.9884   -2792.3068    246.83205    11878.659 
   43250    279.41331    201.36128   -3212.0426   -2796.4365    368.28309    11881.943 
   43300    287.57637    201.59821   -3219.9402   -2792.1921    123.48993    11885.139 
   43350    287.95493    201.59175   -3219.7249   -2791.4137    79.761281    11888.135 
   43400    292.82272    201.65973   -3221.9911   -2786.4395   -81.860433    11890.874 
   43450    267.87714    200.96409    -3198.803    -2800.356    511.24633    11893.349 
   43500    285.79352    201.42682   -3214.2275   -2789.1313    88.868498    11895.759 
   43550    283.04784    201.41793    -3213.931   -2792.9188    109.41004    11897.992 
   43600    288.62256    201.51886   -3217.2954   -2787.9912    3.6695582    11899.995 
   43650    301.78544    201.95305   -3231.7683   -2782.8854   -353.91327    11901.698 
   43700    281.69913     201.2563   -3208.5434   -2789.5373    195.44981    11902.988 
   43750    284.07695    201.31165   -3210.3883   -2787.8453     183.7347    11904.069 
   43800    294.05762    201.53761   -3217.9204    -2780.532   -84.476132    11904.969 
   43850    289.44733    201.39654    -3213.218    -2782.687   -37.791172    11905.551 
   43900    300.48936     201.6618     -3222.06   -2775.1048   -334.67954    11905.803 
   43950    291.25649    201.43758   -3214.5861   -2781.3641   -41.348546    11905.638 
   44000    281.33908    201.11912   -3203.9708   -2785.5002    344.08441    11905.162 
[...]
   89400    283.84685    219.39522   -3146.5075   -2724.3068    648.95233    12031.898 
   89450    302.48337    219.96042   -3165.3474   -2715.4263    107.79123     12033.49 
   89500    297.04891    219.91839   -3163.9462   -2722.1085    160.55014     12034.95 
   89550    296.30408    219.93936   -3164.6454   -2723.9156    122.17894    12036.258 
   89600    291.44342    219.83027   -3161.0091   -2727.5091    178.92876    12037.406 
   89650     293.3278    219.98858   -3166.2861   -2729.9832     -11.2214    12038.408 
   89700    292.92055    220.00574   -3166.8581   -2731.1609   -78.663372    12039.191 
   89750    289.81279    219.93457   -3164.4856    -2733.411     39.13921     12039.71 
   89800    277.20327    219.63035   -3154.3451   -2742.0263    289.76458    12040.033 
   89850    287.31937    220.00438   -3166.8126   -2739.4468   -39.335744    12040.244 
   89900    286.38771    220.01334   -3167.1112   -2741.1312    -21.52749    12040.223 
   89950    295.04466    220.35612   -3178.5372   -2739.6806   -326.84579    12039.929 
   90000    292.94428    220.19402   -3173.1341   -2737.4017   -322.85104    12039.249 
   90050    286.26704    220.05556   -3168.5188   -2742.7183   -92.659009     12038.17 
   90100    292.68733    220.18048   -3172.6827   -2737.3325   -156.55695    12036.778 
   90150    287.28758    220.10061   -3170.0202   -2742.7017   -59.882709    12035.073 
   90200     288.3042    220.18296   -3172.7652   -2743.9345   -170.89188    12033.094 
   90250    288.33573    220.26224   -3175.4079   -2746.5303   -211.28854     12030.79 
   90300    274.92385    219.87282   -3162.4274    -2753.499    232.74927    12028.156 
   90350    278.10992    219.96177   -3165.3923   -2751.7249    185.88907    12025.378 
   90400    279.95898    220.01058   -3167.0194   -2750.6016     96.45802     12022.47 
   90450    284.70185    220.24136   -3174.7121   -2751.2397   -95.705185    12019.372 
   90500    290.86309      220.478   -3182.5999   -2749.9631   -292.49376    12015.967 
   90550     278.7636    220.14884   -3171.6281   -2756.9884    49.148715    12012.183 
   90600    275.69803    220.12623   -3170.8743   -2760.7944    135.95831    12008.167 
   90650    282.48005    220.32562   -3177.5207   -2757.3531    3.0331023    12003.954 
   90700    284.38628    220.33819   -3177.9398   -2754.9368    20.515685    11999.514 
   90750    290.28022    220.56909   -3185.6363   -2753.8664   -158.94181    11994.821 
   90800    279.36011    220.27801   -3175.9336   -2760.4066    127.17701    11989.812 
   90850    279.64401    220.39489   -3179.8298   -2763.8805    71.912273    11984.599 
   90900     272.0209    220.23822   -3174.6074   -2769.9969    323.29624     11979.19 
   90950    269.24071    220.20318   -3173.4393   -2772.9641    407.99694    11973.693 
   91000    278.97897    220.58423   -3186.1409   -2771.1808    86.689473    11968.146 
   91050     281.6101    220.76676   -3192.2253   -2773.3516    18.422166    11962.407 
   91100    277.64373    220.59187   -3186.3958   -2773.4218    224.64613    11956.435 
   91150    282.53791    220.85759   -3195.2529   -2774.9991     79.92664    11950.304 
   91200    284.01787    220.94615    -3198.205     -2775.75     127.7203    11943.978 
   91250    280.01017    220.90073   -3196.6909    -2780.197    245.31737    11937.475 
   91300    283.94749    221.14017   -3204.6723   -2782.3219    143.37067    11930.827 
   91350    273.85344     220.8529   -3195.0966   -2787.7604    530.11718    11924.021 
   91400    281.89254    221.20947   -3206.9824   -2787.6886    316.54908    11917.197 
   91450    273.38288    220.99255   -3199.7517   -2793.1154     524.5423    11910.317 
   91500    272.58897    220.90153   -3196.7178   -2791.2623     606.3031    11903.448 
   91550    276.05287    221.01047   -3200.3491   -2789.7413    537.25392    11896.637 
   91600    272.69244    221.00129    -3200.043   -2794.4337    617.90503    11889.865 
   91650    276.61673    221.20385   -3206.7951   -2795.3487    501.95628    11883.162 
   91700    269.46869    221.01433   -3200.4777   -2799.6634    797.07113    11876.504 
   91750    273.05649    221.25154   -3208.3846   -2802.2337    796.89817     11869.99 
   91800    278.59953    221.36393    -3212.131   -2797.7353    644.21326    11863.641 
   91850    279.43217    221.41774   -3213.9246   -2798.2904    693.52545     11857.37 
   91900    261.40622    220.85287   -3195.0956   -2806.2737    1278.6006    11851.256 
   91950    289.81665    221.77302   -3225.7673   -2794.6869    481.75166    11845.478 
   92000    277.29473    221.39096   -3213.0321   -2800.5772    859.29372    11839.769 
   92050    288.80181    216.74931   -3224.9771   -2795.4063    647.18657    11834.205 
   92100    273.96367    216.28059   -3209.3529   -2801.8527    1150.4264    11828.771 
   92150    282.55317    216.52681   -3217.5603   -2797.2839    1011.7466    11823.626 
   92200     279.4874     216.3279     -3210.93   -2795.2137    1141.4415    11818.765 
   92250    280.99125    216.35952   -3211.9839   -2794.0307    1166.2762    11814.231 
   92300    286.84589    216.59165   -3219.7218   -2793.0603    1112.0074     11810.03 
   92350    291.27439    216.78347   -3226.1156    -2792.867    1095.9014    11806.136 
   92400    276.93591    216.37237   -3212.4124   -2800.4912    1549.2397     11802.58 
   92450    278.08633    216.39854   -3213.2845   -2799.6522    1518.6403    11799.547 
   92500    280.83209    216.48379   -3216.1264     -2798.41    1488.5082    11797.045 
   92550    276.59179    216.24664   -3208.2213   -2796.8119    1723.9618     11795.07 
   92600    285.64069    216.51237    -3217.079   -2792.2101    1465.5329    11793.723 
   92650    292.54683    216.64228   -3221.4093    -2786.268    1365.6104    11792.895 
   92700    287.50709    216.34235   -3211.4118   -2783.7668    1571.1244    11792.546 
   92750    293.88661    216.53828   -3217.9426   -2780.8085    1413.3676    11792.733 
   92800    288.96474    216.42453   -3214.1509   -2784.3377     1532.853    11793.426 
   92850    281.67469    216.08795   -3202.9315   -2783.9618    1764.1271     11794.69 
   92900    297.88575    216.56042   -3218.6808   -2775.5984    1328.1577    11796.588 
   92950    286.31779    216.21236   -3207.0788   -2781.2027    1677.4237    11798.988 
   93000     282.6965    216.07455   -3202.4849   -2781.9953     1835.531    11801.999 
   93050    291.86279    216.30355   -3210.1182   -2775.9944    1624.9438     11805.73 
   93100    309.35091    216.85364   -3228.4546   -2768.3186    1091.2225    11810.064 
   93150    298.90819    216.49862   -3216.6208   -2772.0175    1284.7338    11814.781 
   93200    289.49369    216.14698   -3204.8993   -2774.2993    1520.4648     11819.93 
   93250     292.4668    216.10657   -3203.5522     -2768.53    1497.2596    11825.644 
   93300    286.78719    215.93141   -3197.7138   -2771.1396    1619.7949     11831.94 
   93350    287.57429     215.8925   -3196.4167   -2768.6718    1609.5634    11838.852 
   93400    299.00437    216.19286   -3206.4286   -2761.6823    1235.9934    11846.396 
   93450    307.60663    216.39125   -3213.0416      -2755.5    890.39837    11854.374 
   93500    290.99856    215.88387   -3196.1289   -2763.2906    1229.2764     11862.66 
   93550    296.94321    216.03282   -3201.0938   -2759.4133    1098.5572    11871.359 
   93600    290.78867    215.83591   -3194.5304   -2762.0043     1257.166    11880.456 
   93650    300.44697    216.15606    -3205.202   -2758.3099    760.02224    11889.995 
   93700    289.79177    215.81656   -3193.8855   -2762.8422    933.58146    11899.795 
   93750    285.85393    215.61694   -3187.2314   -2762.0454    1079.8584    11909.893 
   93800    280.89251    215.44784   -3181.5945   -2763.7882    1114.9873    11920.369 
   93850    281.82576    215.45576   -3181.8586   -2762.6641    936.89752    11931.239 
   93900    279.02419    215.24346   -3174.7819   -2759.7546    917.97886    11942.454 
   93950    298.15732     215.8617   -3195.3901   -2751.9037    203.52231    11953.934 
   94000    299.78192    215.81357   -3193.7858   -2747.8829    16.276435    11965.372 
   94050    295.53685    210.60607   -3186.8688   -2747.2802    18.263662    11976.633 
   94100    302.01734    210.86847   -3195.6156   -2746.3876   -282.53035    11987.683 
   94150    288.98348    210.46947   -3182.3157   -2752.4746   -24.337896     11998.42 
   94200    299.66652    210.86012   -3195.3372    -2749.606   -389.49927    12008.878 
   94250    276.86673    210.04215   -3168.0715   -2756.2532    143.86756    12018.979 
   94300    281.39467    210.14168   -3171.3893    -2752.836   -165.11461    12028.908 
   94350    286.81533     210.3045   -3176.8166   -2750.2006   -453.87522    12038.551 
   94400    275.17603    209.92115   -3164.0382   -2754.7347   -183.15336    12047.786 
   94450    295.82375    210.39801   -3179.9336   -2739.9181   -732.34987    12056.657 
   94500    291.52423     210.2268   -3174.2267   -2740.6065   -719.27859    12064.955 
   94550     293.7021    210.30197   -3176.7323   -2739.8726   -875.20938    12072.625 
   94600     289.0123    210.15398   -3171.7992   -2741.9153   -799.23996    12079.611 
   94650     280.8303    209.86611   -3162.2036   -2744.4899    -593.6803    12085.948 
   94700    289.83995    210.08977   -3169.6589    -2738.544   -868.99911    12091.715 
   94750    290.52034    210.07894    -3169.298    -2737.171   -904.37678    12096.802 
   94800     289.4407    210.01651   -3167.2169   -2736.6958   -856.35644    12101.154 
   94850    281.79836    209.71063   -3157.0209   -2737.8672    -662.8945    12104.813 
   94900    283.24833    209.81335    -3160.445   -2739.1346   -785.29273     12107.86 
   94950    280.56256     209.7067   -3156.8901   -2739.5746   -737.26821    12110.255 
   95000    285.51338    209.75363   -3158.4544   -2733.7749   -799.73905    12112.001 
   95050    299.18594    215.04485   -3168.1617   -2723.1453   -1086.9824    12113.055 
   95100    291.29511    214.84823   -3161.6075   -2728.3281    -810.0558     12113.31 
   95150    287.87485    214.69721   -3156.5738   -2728.3818   -626.18602    12112.862 
   95200    298.07195    215.02462   -3167.4872   -2724.1278   -902.98665    12111.797 
   95250     305.5252    215.27237   -3175.7457   -2721.3001    -1046.011    12109.995 
   95300    293.19817    214.80307   -3160.1023   -2723.9922    -578.0577    12107.393 
   95350    284.95662    214.48228   -3149.4094    -2725.558    -251.0606    12104.214 
   95400    293.00877    214.65725   -3155.2417   -2719.4134   -355.57526    12100.613 
   95450    289.49173     214.4904     -3149.68    -2719.083   -196.43991    12096.593 
   95500    299.42486    214.77999   -3159.3329   -2713.9611   -386.86069    12092.176 
   95550     292.6779    214.60141   -3153.3804   -2718.0442   -92.157879    12087.315 
   95600    296.15571     214.6271   -3154.2368   -2713.7276   -57.597821    12082.113 
   95650    294.75835    214.64024   -3154.6745   -2716.2438   -82.619061    12076.623 
   95700    317.66575    215.41895   -3180.6316   -2708.1279   -692.25621    12070.789 
   95750    308.59308    215.07539   -3169.1796   -2710.1708   -337.78976    12064.354 
   95800    294.97647    214.65285   -3155.0951     -2716.34    82.542354     12057.46 
   95850    297.18514    214.66975   -3155.6583    -2713.618    155.11609    12050.311 
   95900    297.51117     214.6697   -3155.6568   -2713.1315    304.24408    12042.986 
   95950     308.9145    215.00828   -3166.9425   -2707.4556     174.6489    12035.527 
   96000    301.89852    214.81051   -3160.3503   -2711.2991     504.1623    12027.915 
   96050    291.18151    214.40871   -3146.9569   -2713.8465     890.8938    12020.302 
   96100    312.18138    215.09075   -3169.6917   -2705.3456    294.79336    12012.825 
   96150    317.60041    215.15603   -3171.8675    -2699.461    279.61897    12005.259 
   96200     306.0433    214.77532   -3159.1772    -2703.961    767.51047    11997.583 
   96250    316.47667    215.16631   -3172.2105   -2701.4754    569.46499    11989.982 
   96300    311.39421    214.99257    -3166.419   -2703.2437    784.97523    11982.437 
   96350    311.67653    214.98877   -3166.2925   -2702.6973    940.54187    11975.015 
   96400    311.46039    215.02153   -3167.3843   -2704.1106    1108.7333    11967.804 
   96450    322.05572    215.39103   -3179.7011   -2700.6676    930.09412    11960.874 
   96500    313.37206    215.10277   -3170.0924   -2703.9752    1216.6025    11954.188 
   96550    321.30368    215.31023   -3177.0078   -2699.0929    1056.6736     11947.82 
   96600    302.51021    214.65698   -3155.2326   -2705.2716    1645.5999    11941.771 
   96650     314.2336    215.13027   -3171.0091   -2703.6105    1294.4536    11936.255 
   96700    314.16895    215.14264   -3171.4212   -2704.1187    1279.2411    11931.175 
   96750     317.4154    215.23636   -3174.5452   -2702.4138    1263.5503    11926.474 
   96800    329.58467    215.61996    -3187.332   -2697.0998    968.58606    11922.127 
   96850    322.41843    215.34938   -3178.3127   -2698.7397    1265.4027    11918.043 
   96900    314.11257    215.10098   -3170.0327   -2702.8141    1503.2138    11914.329 
   96950    314.31718    215.16679   -3172.2262   -2704.7032    1471.9188    11911.115 
   97000    308.24897    214.97163   -3165.7209   -2707.2239    1744.8416    11908.414 
   97050    311.84534    215.11849   -3170.6165   -2706.7702    1699.2504    11906.334 
   97100    311.17986    215.02935   -3167.6451   -2704.7886    1759.0346    11904.888 
   97150    299.66067    214.79584   -3159.8615    -2714.139    2008.6154    11904.098 
   97200    300.90575    214.95476   -3165.1586   -2717.5841    1920.1124    11904.087 
   97250    317.94448    215.41174   -3180.3913    -2707.473    1403.5913    11904.817 
   97300    312.77542    215.30023   -3176.6743   -2711.4446    1443.1746    11906.037 
   97350    316.33775    215.51359   -3183.7864   -2713.2579    1240.8879    11907.725 
   97400    319.98652    215.61933   -3187.3111   -2711.3554    1045.6021    11909.816 
   97450    319.66976    215.59742   -3186.5806    -2711.096      1066.58    11912.182 
   97500    300.15014    215.07231   -3169.0769   -2722.6263    1614.0969    11914.893 
   97550     302.2496    215.18384   -3172.7946   -2723.2212    1480.6282    11918.161 
   97600    304.49354    215.25222   -3175.0738   -2722.1628    1340.1989    11921.967 
   97650    319.87137    215.72324   -3190.7748   -2714.9904    842.09025    11926.212 
   97700    304.77709    215.32158   -3177.3861   -2724.0533    1147.2008    11930.693 
   97750    300.35322    215.15815   -3171.9384   -2725.1858    1225.9469    11935.507 
   97800    300.73389    215.28905   -3176.3016   -2728.9827    1069.9447    11940.714 
   97850    286.16004    214.94242   -3164.7473   -2739.1059    1334.0417    11946.287 
   97900    291.64075    215.10678   -3170.2261   -2736.4326     1024.901     11952.33 
   97950    313.18126    215.83877   -3194.6255   -2728.7921    181.21051     11958.67 
   98000    318.90457    216.07206   -3202.4019   -2728.0556   -132.37309    11964.901 
   98050    308.98488    210.73507    -3191.169   -2731.5774    92.473271    11970.845 
   98100    303.33737    210.61385   -3187.1282   -2735.9368    148.66641    11976.579 
   98150    300.44064    210.50962   -3183.6541   -2736.7714    199.33341    11982.145 
   98200    298.18594    210.48279   -3182.7597   -2739.2307     243.0764    11987.568 
   98250    301.29466    210.55865   -3185.2882   -2737.1352    151.55767    11992.858 
   98300    285.20228    210.09449   -3169.8164   -2745.5997    574.22364    11998.024 
   98350    287.31194    210.15252   -3171.7507    -2744.396    422.84123    12003.218 
   98400    302.09784     210.6237   -3187.4565   -2738.1089   -199.45285    12008.365 
   98450    298.34604    210.50086    -3183.362   -2739.5949   -276.64214    12013.191 
   98500    292.17354    210.29315   -3176.4382   -2741.8522   -122.57346    12017.625 
   98550    290.47984    210.24324   -3174.7748    -2742.708   -94.632175     12021.75 
   98600    295.80538    210.46989   -3182.3297   -2742.3416   -332.11678    12025.567 
   98650    304.36735    210.75344   -3191.7812   -2739.0578   -660.88443    12028.941 
   98700    286.61823    210.17762   -3172.5873   -2746.2644   -141.27217    12031.749 
   98750    283.61421    210.10521   -3170.1738   -2748.3192    37.004489    12034.197 
   98800    291.22808    210.34623   -3178.2076   -2745.0279   -233.97136    12036.415 
   98850     295.1974    210.47538   -3182.5127    -2743.429   -448.81047    12038.258 
   98900    290.98593     210.3557   -3178.5234   -2745.7039   -320.11485    12039.618 
   98950    298.38543    210.57086   -3185.6953   -2741.8696    -518.1326    12040.534 
   99000     296.3089    210.50505   -3183.5016   -2742.7646   -522.25881    12040.929 
   99050     306.5738    205.73136   -3191.0454   -2735.0401   -737.97038    12040.762 
   99100    290.57095    205.26966   -3175.6554   -2743.4531    -258.8505    12039.961 
   99150    301.00948    205.58405   -3186.1349   -2738.4061   -517.98406    12038.683 
   99200     290.8209    205.38233   -3179.4111   -2746.8371   -367.29974    12036.877 
   99250     285.5423     205.2113   -3173.7098   -2748.9873   -227.09991    12034.592 
   99300    298.80377    205.48272   -3182.7574   -2738.3095   -469.34337    12031.885 
   99350    303.23903    205.60334    -3186.778   -2735.7329   -457.59233    12028.651 
   99400    278.52351    204.92791   -3164.2636    -2749.981    223.82469    12024.927 
   99450    296.88807    205.45116   -3181.7053   -2740.1068   -291.04963    12020.963 
   99500    297.01372    205.48495   -3182.8318   -2741.0464   -275.71955    12016.569 
   99550    279.15664    204.96454   -3165.4848   -2750.2604    314.95736    12011.772 
   99600    305.86057    205.76352   -3192.1175    -2737.173   -321.55615    12006.782 
   99650     314.7117    206.09409   -3203.1363   -2735.0265   -513.36639    12001.344 
   99700    291.66197    205.39045   -3179.6818   -2745.8567    238.96891    11995.382 
   99750    284.81543    205.10598   -3170.1993   -2746.5579    512.13703    11989.225 
   99800    296.29276    205.44673   -3181.5576   -2740.8445    218.47609    11983.008 
   99850    303.84334    205.64366   -3188.1221   -2736.1781    93.695451    11976.615 
   99900    313.09946    205.98902    -3199.634   -2733.9223   -154.11933    11969.958 
   99950    311.25152    205.93721   -3197.9071    -2734.944   -70.473994     11962.93 
  100000     302.2256     205.6748     -3189.16   -2739.6223    294.61454    11955.571 
Loop time of 27.0865 on 1 procs for 100000 steps with 500 atoms

Performance: 318.978 ns/day, 0.075 hours/ns, 3691.879 timesteps/s
98.7% CPU use with 1 MPI tasks x 1 OpenMP threads

MPI task timing breakdown:
Section |  min time  |  avg time  |  max time  |%varavg| %total
---------------------------------------------------------------
Pair    | 22.376     | 22.376     | 22.376     |   0.0 | 82.61
Bond    | 0.0068014  | 0.0068014  | 0.0068014  |   0.0 |  0.03
Neigh   | 0.49687    | 0.49687    | 0.49687    |   0.0 |  1.83
Comm    | 0.81646    | 0.81646    | 0.81646    |   0.0 |  3.01
Output  | 0.018397   | 0.018397   | 0.018397   |   0.0 |  0.07
Modify  | 2.7969     | 2.7969     | 2.7969     |   0.0 | 10.33
Other   |            | 0.5754     |            |       |  2.12

Nlocal:    500 ave 500 max 500 min
Histogram: 1 0 0 0 0 0 0 0 0 0
Nghost:    1589 ave 1589 max 1589 min
Histogram: 1 0 0 0 0 0 0 0 0 0
Neighs:    14561 ave 14561 max 14561 min
Histogram: 1 0 0 0 0 0 0 0 0 0

Total # of neighbors = 14561
Ave neighs/atom = 29.122
Ave special neighs/atom = 0
Neighbor list builds = 594
Dangerous builds = 0

write_data      ${walker}/final_restart_file
write_data      1/final_restart_file

quit
