LAMMPS (19 May 2017)
Processor partition = 1
  using 1 OpenMP thread(s) per MPI task
# gREM variables
variable        lambda world 1000 1005 1010 1015 1020 1025 1030 1035 1040 1045 1050 1055 1060 1065 1070 1075
variable        walker world 0 1 2 3 4 5 6 7 8 9 10 11 12 13 14 15
variable        replica world 1 0 3 9 12 2 5 13 10 4 7 14 6 15 8 11

variable        T0 equal 300.0
variable        press equal 0.0

units           real
atom_style      full
pair_style      lj/cut 5.0

# LJ particles
read_data       ${walker}/restart_file
read_data       1/restart_file
  orthogonal box = (1.10272 1.10272 1.10272) to (23.8973 23.8973 23.8973)
  1 by 1 by 1 MPI processor grid
  reading atoms ...
  500 atoms
  reading velocities ...
  500 velocities
  0 = max # of 1-2 neighbors
  0 = max # of 1-3 neighbors
  0 = max # of 1-4 neighbors
  1 = max # of special neighbors

#dump            dump all xyz 1000 ${walker}/dump.xyz

fix             fxnpt all npt temp ${T0} ${T0} 1000.0 iso ${press} ${press} 10000.0
fix             fxnpt all npt temp 300 ${T0} 1000.0 iso ${press} ${press} 10000.0
fix             fxnpt all npt temp 300 300 1000.0 iso ${press} ${press} 10000.0
fix             fxnpt all npt temp 300 300 1000.0 iso 0 ${press} 10000.0
fix             fxnpt all npt temp 300 300 1000.0 iso 0 0 10000.0
fix             fxgREM all grem ${lambda} -.03 -30000 fxnpt
fix             fxgREM all grem 1005 -.03 -30000 fxnpt
thermo_modify   press fxgREM_press

thermo          50
thermo_style    custom step temp f_fxgREM pe etotal press vol
WARNING: New thermo_style command, previous thermo_modify settings will be lost (../output.cpp:705)
timestep        1.0

temper/grem     100000 1000 ${lambda} fxgREM fxnpt 10294 98392 ${walker}
temper/grem     100000 1000 1005 fxgREM fxnpt 10294 98392 ${walker}
temper/grem     100000 1000 1005 fxgREM fxnpt 10294 98392 1
Neighbor list info ...
  update every 1 steps, delay 10 steps, check yes
  max neighbors/atom: 2000, page size: 100000
  master list distance cutoff = 7
  ghost atom cutoff = 7
  binsize = 3.5, bins = 7 7 7
  1 neighbor lists, perpetual/occasional/extra = 1 0 0
  (1) pair lj/cut, perpetual
      attributes: half, newton on
      pair build: half/bin/newton
      stencil: half/bin/3d/newton
      bin: standard
Per MPI rank memory allocation (min/avg/max) = 5.724 | 5.724 | 5.724 Mbytes
Step Temp f_fxgREM PotEng TotEng Press Volume 
       0    300.48105    202.01796    -3233.932   -2786.9892    337.75111    11843.885 
      50    290.28271    201.75077   -3225.0258   -2793.2522    498.10625     11843.85 
     100    291.86852    201.74953   -3224.9844   -2790.8521    442.11325    11843.779 
     150    290.30327    201.73939   -3224.6464   -2792.8423    521.55051     11843.66 
     200    289.57799    201.71747   -3223.9158   -2793.1905    610.36903    11843.527 
     250    288.75026    201.72643   -3224.2144   -2794.7203    592.46958    11843.425 
     300     294.1676    201.97279   -3232.4263   -2794.8742    332.84943    11843.323 
     350    291.73764    201.74954   -3224.9847   -2791.0471     483.9989    11843.134 
     400      299.186    201.96759   -3232.2529   -2787.2364    344.33179    11842.892 
     450    294.69901    201.79493   -3226.4976   -2788.1551    488.02901    11842.559 
     500    293.56759    201.75392   -3225.1308   -2788.4713    479.49262    11842.189 
     550    288.19647    201.57254   -3219.0846   -2790.4142    670.53491    11841.789 
     600    289.90949    201.61781   -3220.5937   -2789.3753    716.50778    11841.444 
     650    291.01565    201.55179   -3218.3931   -2785.5293    725.97767    11841.199 
     700    298.50637    201.75449   -3225.1495   -2781.1439    566.42621    11841.022 
     750    287.08999    201.51526   -3217.1754   -2790.1508    855.99508    11840.881 
     800    281.71364    201.38071   -3212.6904   -2793.6627    955.14173    11840.907 
     850    297.93256    201.87402    -3229.134   -2785.9819    530.14886    11841.113 
     900    295.88128    201.72666   -3224.2221   -2784.1211    665.75596    11841.346 
     950    291.58698    201.54229   -3218.0762   -2784.3627    858.66984    11841.646 
    1000    307.48802    201.88247   -3229.4158   -2772.0506    509.36428    11842.072 
    1050    309.30341    196.97168   -3232.3895   -2772.3241    389.18087    11842.485 
    1100    303.44089    196.75737   -3225.2457   -2773.9004    591.44469    11842.807 
    1150    304.64102    196.75773   -3225.2577   -2772.1273    635.87965    11843.109 
    1200    303.35152    196.67304   -3222.4346   -2771.2222    684.73109    11843.435 
    1250    302.53022    196.61731   -3220.5772   -2770.5864    725.12909     11843.82 
    1300    303.80071    196.55851   -3218.6169   -2766.7364    696.28367    11844.259 
    1350    284.28347    196.09805   -3203.2682   -2780.4181    1175.5143     11844.77 
    1400    302.53507    196.55757   -3218.5856   -2768.5876    750.56621    11845.546 
    1450    306.24644    196.61228   -3220.4094   -2764.8911    635.23433    11846.428 
    1500    305.78338     196.5654   -3218.8468   -2764.0172    659.86098    11847.312 
    1550    301.15401    196.38917   -3212.9724   -2765.0286    768.07399    11848.235 
    1600     301.6427    196.40567   -3213.5222   -2764.8516    863.25864    11849.245 
    1650    309.99899    196.59996   -3219.9985   -2758.8985    706.09195    11850.382 
    1700    316.95815    196.77305   -3225.7682    -2754.317    503.73882    11851.571 
    1750    302.65622    196.36982   -3212.3275   -2762.1493    928.27079    11852.726 
    1800    290.97858    196.05505    -3201.835   -2769.0264    1254.7173    11854.046 
    1850    304.15097    196.25455    -3208.485   -2756.0835    997.83975    11855.699 
    1900    312.99207    196.48449   -3216.1498   -2750.5978    718.30028    11857.554 
    1950    318.33232    196.59768   -3219.9227   -2746.4275    582.42246    11859.452 
    2000    306.52053    196.24456    -3208.152   -2752.2259    927.46423     11861.36 
    2050    304.08912    201.05898   -3201.9661   -2749.6566    1065.9325     11863.43 
    2100    303.40522    200.96652   -3198.8839   -2747.5916    1076.2551    11865.769 
    2150    320.68602    201.59699   -3219.8998   -2742.9036    598.91822    11868.335 
    2200    298.57979    200.84242   -3194.7474   -2750.6326    1265.1591    11870.977 
    2250     292.7751    200.59494    -3186.498   -2751.0173    1449.9664    11873.954 
    2300    315.97814    201.23287   -3207.7624   -2737.7689    815.30598    11877.356 
    2350    320.59877    201.32775   -3210.9249   -2734.0585    726.95667    11880.921 
    2400    305.09506    200.96279   -3198.7596   -2744.9538    1128.2809    11884.582 
    2450    306.67106    200.93398   -3197.7992   -2741.6493    1073.0023    11888.505 
    2500    314.60621    201.11585   -3203.8617   -2735.9088     740.5513    11892.694 
    2550    321.30378    201.36852   -3212.2842   -2734.3691     409.0263    11896.954 
    2600    300.83591     200.7457   -3191.5234   -2744.0528     843.6463    11901.176 
    2650    304.54844    200.90628   -3196.8761   -2743.8833    756.59737    11905.499 
    2700    289.88896    200.38978   -3179.6594   -2748.4716    1159.7039    11909.973 
    2750    318.64952    201.29474   -3209.8248   -2735.8578     308.7298    11914.681 
    2800     310.3187    201.04569    -3201.523   -2739.9474    360.35683     11919.32 
    2850    313.30677    201.06184   -3202.0614   -2736.0413    251.05622    11923.846 
    2900    318.23445    201.19756   -3206.5854   -2733.2357    143.73635    11928.196 
    2950    291.57223    200.46326   -3182.1087   -2748.4171    820.66828     11932.37 
    3000    297.58464    200.62605   -3187.5352   -2744.9005    670.07385    11936.651 
    3050    323.59027    201.29876   -3209.9588   -2728.6428   -44.437085    11940.973 
    3100    315.10114    201.05706    -3201.902   -2733.2129      100.018    11945.013 
    3150    292.91209    200.35824    -3178.608   -2742.9235    645.55764    11948.817 
    3200    297.08206    200.49728   -3183.2426   -2741.3556    443.11098    11952.623 
    3250    304.51958    200.70523   -3190.1745   -2737.2247    238.80955    11956.371 
    3300    299.17889     200.5875     -3186.25   -2741.2441    323.65348    11959.977 
    3350    328.06949    201.49301   -3216.4337   -2728.4552   -505.52626     11963.41 
    3400    308.25838    200.83828   -3194.6094   -2736.0984   -14.960744    11966.345 
    3450    304.80745     200.8367   -3194.5565   -2741.1785    40.420162    11968.934 
    3500    296.71444    200.62559   -3187.5197   -2746.1794    189.37698    11971.256 
    3550    293.60513    200.53894   -3184.6314    -2747.916    232.69021    11973.373 
    3600    302.58852     200.8278     -3194.26   -2744.1825   -1.5865247    11975.314 
    3650    303.04014    200.83807   -3194.6025   -2743.8532   -29.463313     11976.97 
    3700    306.28286    200.82959   -3194.3195    -2738.747   -85.020668      11978.3 
    3750    302.59956    200.76826   -3192.2752   -2742.1813   -47.975384     11979.29 
    3800    313.52711    201.09255   -3203.0849   -2736.7371   -341.57606    11979.933 
    3850    293.69569    200.46328   -3182.1093   -2745.2592    190.74653    11980.142 
    3900    299.99057    200.66437   -3188.8125   -2742.5992   -11.799994    11980.107 
    3950    305.99183    200.84066   -3194.6888   -2739.5492   -206.22356    11979.782 
    4000    308.38065     200.9133     -3197.11   -2738.4172   -307.73129    11979.054 
    4050    300.84422    200.69003   -3189.6675   -2742.1845   -80.305159    11977.893 
    4100    299.83476    200.69694   -3189.8979   -2743.9164   -21.213164    11976.373 
    4150    289.09904    200.36914   -3178.9713   -2748.9584    268.50403    11974.561 
    4200    305.80198    200.94147   -3198.0489   -2743.1916   -173.05476    11972.563 
    4250    306.18722    200.91721   -3197.2403     -2741.81   -129.20768    11970.203 
    4300    299.72374    200.78341   -3192.7802   -2746.9638    35.028016    11967.473 
    4350     294.1321    200.59641   -3186.5469   -2749.0477    221.40827    11964.466 
    4400     291.9791    200.44345   -3181.4483   -2747.1515    439.57424    11961.288 
    4450    295.74576    200.59616   -3186.5388   -2746.6394    417.50306    11958.038 
    4500    314.80377    201.15496   -3205.1653   -2736.9185   -102.56805    11954.672 
    4550    312.70164    201.06746   -3202.2487   -2737.1287   -25.237795    11950.991 
    4600    307.35774     200.9045   -3196.8167   -2739.6453    175.92243     11946.99 
    4650    307.46788    200.95675   -3198.5585   -2741.2233    104.30821    11942.746 
    4700     303.3911    200.91238   -3197.0794   -2745.8081    262.57978    11938.258 
    4750    289.91914     200.4324   -3181.0801   -2749.8474    829.19295    11933.638 
    4800    307.61235    200.97227   -3199.0758   -2741.5258    364.27619    11929.109 
    4850    319.18936    201.41575   -3213.8582   -2739.0882   -12.455494    11924.469 
    4900    305.16493    200.98873   -3199.6245   -2745.7148    514.54154    11919.548 
    4950     294.5052    200.70139   -3190.0462   -2751.9921     854.8183     11914.58 
    5000    295.52802    200.68317   -3189.4391   -2749.8635    864.55788    11909.746 
    5050    307.78719    201.09909    -3203.303   -2745.4929    552.99709    11905.042 
    5100    322.07923    201.53152   -3217.7175    -2738.649     114.7597    11900.317 
    5150     312.3121    201.17184    -3205.728   -2741.1875    458.97878    11895.381 
    5200    293.61724    200.65627   -3188.5423   -2751.8089    1092.5789    11890.383 
    5250    306.87297     201.1026   -3203.4201   -2746.9698    755.33379    11885.591 
    5300     313.1383    201.33051   -3211.0169   -2745.2474     641.5598    11880.897 
    5350    302.06196    201.04809   -3201.6029   -2752.3086    986.08693     11876.26 
    5400    311.43779    201.39431   -3213.1435   -2749.9034     696.3303    11871.793 
    5450    301.44321    201.06386   -3202.1286   -2753.7547    1033.2751    11867.411 
    5500    308.96391    201.26892    -3208.964   -2749.4036    897.10231    11863.236 
    5550    312.73735    201.43167   -3214.3891    -2749.216    794.85534    11859.228 
    5600    299.35204    200.98266    -3199.422   -2754.1585     1185.074    11855.355 
    5650    311.13757    201.41749   -3213.9163   -2751.1227    918.17196    11851.764 
    5700    315.33299    201.52184   -3217.3947   -2748.3607    863.72422     11848.35 
    5750    297.40931    201.05123   -3201.7078    -2759.334    1291.2869    11845.104 
    5800    309.12305    201.38902   -3212.9673   -2753.1702    1008.1246    11842.184 
    5850    304.32019    201.26174   -3208.7247   -2756.0715    1114.3499    11839.516 
    5900    304.04229     201.2983   -3209.9435   -2757.7036    1101.9656    11837.106 
    5950    304.99392    201.33671   -3211.2237   -2757.5684    1124.9376    11834.965 
    6000    316.49448     201.7764   -3225.8801   -2755.1186    771.97454     11833.08 
    6050    312.16546     201.7047     -3223.49   -2759.1676    797.48119    11831.307 
    6100    293.94902     201.1342   -3204.4734   -2767.2465     1357.045    11829.685 
    6150    298.05606    201.30627   -3210.2091   -2766.8733     1277.396    11828.422 
    6200    299.67351    201.36735   -3212.2448   -2766.5032    1231.5548    11827.552 
    6250    303.17128    201.48599   -3216.1998   -2765.2555    1067.1613    11827.023 
    6300    303.30857        201.5   -3216.6666    -2765.518    1034.4018    11826.747 
    6350    298.24991    201.38989   -3212.9965   -2769.3724    1154.0311    11826.731 
    6400     305.6385    201.62506   -3220.8354   -2766.2213    951.64478        11827 
    6450    303.77031    201.62642   -3220.8806   -2769.0453     932.9996    11827.494 
    6500    300.27439      201.587   -3219.5666   -2772.9312    989.72491    11828.181 
    6550    302.57947    201.72493   -3224.1645   -2774.1004    890.47466    11829.074 
    6600    298.77072    201.58118   -3219.3726   -2774.9738    1003.8914    11830.142 
    6650    291.48472    201.32382    -3210.794   -2777.2326    1209.9366    11831.445 
    6700    301.55963    201.66826   -3222.2753   -2773.7282    799.78283    11833.054 
    6750    283.12237    201.22044   -3207.3481    -2786.225    1148.2581    11834.833 
    6800    301.29698    201.84007   -3228.0023   -2779.8459    613.47338    11836.856 
    6850    293.50818    201.56617   -3218.8722    -2782.301    755.87355    11838.964 
    6900    297.85456    201.66248   -3222.0828   -2779.0467    675.04482    11841.168 
    6950    296.41877    201.60073   -3220.0243   -2779.1238    696.29893    11843.447 
    7000    292.76758    201.66457   -3222.1523   -2786.6827     679.5759    11845.797 
    7050    290.50102    196.59973   -3219.9909   -2787.8927    689.62898    11848.221 
    7100    298.50854    196.81429   -3227.1431   -2783.1342    438.87585    11850.686 
    7150    289.01434    196.45271   -3215.0903   -2785.2033      649.946    11853.124 
    7200    294.15234    196.62395   -3220.7983    -2783.269    477.66653    11855.577 
    7250    288.93149    196.44378   -3214.7927    -2785.029    595.63111    11858.005 
    7300    292.11426    196.57052   -3219.0172   -2784.5193    488.95172    11860.448 
    7350    298.48742    196.76967   -3225.6557   -2781.6783    252.76492    11862.843 
    7400    300.86253    196.82769   -3227.5895   -2780.0793    73.664785    11865.081 
    7450    306.25716    196.94284   -3231.4281   -2775.8938   -57.981554    11867.058 
    7500    280.34229    196.18178   -3206.0593   -2789.0714    707.92049    11868.748 
    7550    296.94706    196.69298   -3223.0995   -2781.4132    262.23811    11870.455 
    7600    297.36629    196.75375   -3225.1249   -2782.8151     207.3794    11872.041 
    7650    291.50918     196.6306   -3221.0199   -2787.4221    392.56222    11873.446 
    7700    299.63579    196.87215   -3229.0717   -2783.3861    67.259266    11874.733 
    7750    286.50436    196.49105   -3216.3683   -2790.2147    290.28692    11875.788 
    7800    290.09609    196.56192   -3218.7306   -2787.2347    221.16765    11876.687 
    7850    282.36134    196.33175   -3211.0582   -2791.0671     447.2685    11877.444 
    7900    292.46893    196.69986   -3223.3286   -2788.3032    166.32312    11878.114 
    7950    297.21578     196.8865   -3229.5501   -2787.4641    -16.98036    11878.581 
    8000    306.19222    197.07838   -3235.9461   -2780.5084   -259.70298    11878.734 
    8050    293.78714    201.69814   -3223.2714   -2786.2853    25.466826    11878.482 
    8100    293.94111    201.69082   -3223.0274   -2785.8123    52.000276    11877.932 
    8150    283.17051    201.37443    -3212.481   -2791.2863    363.87531    11877.147 
    8200    284.19187    201.41379    -3213.793   -2791.0792    417.15596     11876.24 
    8250    293.80059    201.66048   -3222.0159   -2785.0098    202.89134    11875.274 
    8300    304.68861    201.94446    -3231.482   -2778.2807   -17.263276    11874.122 
    8350     299.2766    201.80652   -3226.8841   -2781.7328    206.15101    11872.672 
    8400    283.67554    201.35101   -3211.7003   -2789.7544    653.84116    11871.058 
    8450    275.55886    201.18101   -3206.0335   -2796.1606    813.72078    11869.489 
    8500    290.17488     201.5737   -3219.1232   -2787.5101    479.96803    11868.027 
    8550    283.88188    201.30567   -3210.1889   -2787.9361    749.66575    11866.567 
    8600    305.80565    201.92015   -3230.6716   -2775.8089    160.84058    11865.158 
    8650    305.46164    201.89624   -3229.8745   -2775.5235    129.06486    11863.575 
    8700    301.12563    201.74078   -3224.6928   -2776.7912    298.73995    11861.775 
    8750     294.0986    201.57786   -3219.2619   -2781.8125    541.79491    11859.843 
    8800    292.80988    201.45516   -3215.1721   -2779.6396    697.30372    11857.879 
    8850    286.44769    201.19718   -3206.5727   -2780.5034    873.18174    11855.989 
    8900    311.64452    201.77787   -3225.9291   -2762.3815    250.66303    11854.217 
    8950    302.12687    201.47996   -3215.9988    -2766.608    583.34654    11852.341 
    9000    297.00616    201.36031   -3212.0103   -2770.2362    799.33987    11850.446 
    9050     291.7737    201.13118   -3204.3727   -2770.3814    1028.0208    11848.682 
    9100    304.49685    201.53705   -3217.9016   -2764.9856    847.77951    11847.124 
    9150    298.99192    201.29796   -3209.9321   -2765.2043    1101.6602    11845.743 
    9200    292.83165    201.00854   -3200.2846   -2764.7197    1327.7108    11844.625 
    9250    303.34928    201.34468   -3211.4893   -2760.2802    1084.0709    11843.868 
    9300    315.50415    201.63724   -3221.2415    -2751.953    820.50021    11843.376 
    9350    298.72595    201.13451   -3204.4836   -2760.1513    1283.4209    11843.045 
    9400    311.40147    201.41503   -3213.8344   -2750.6483    993.17579    11843.028 
    9450    303.40266    201.11578   -3203.8594   -2752.5709    1210.4783    11843.253 
    9500    313.91049    201.28645   -3209.5483   -2742.6302    1061.6382     11843.77 
    9550    315.03487    201.22602    -3207.534   -2738.9435    1097.4044    11844.546 
    9600    317.08709    201.31296   -3210.4321   -2738.7891    1073.1946    11845.572 
    9650    303.72261    200.91473   -3197.1578   -2745.3934    1468.4503    11846.896 
    9700    313.78586    201.15877   -3205.2922   -2738.5595    1262.5833     11848.65 
    9750    313.05243    201.09729   -3203.2431   -2737.6014    1300.6757    11850.772 
    9800    309.16087      200.924   -3197.4667   -2737.6133    1375.4833     11853.28 
    9850     318.9803    201.16554   -3205.5181    -2731.059    1087.5486    11856.186 
    9900    317.44736    201.05299   -3201.7664   -2729.5875    1120.1909    11859.361 
    9950    320.93471    201.20729   -3206.9095   -2729.5435    1001.0287    11862.805 
   10000    334.87477    201.61597   -3220.5323   -2722.4314    667.15156    11866.473 
   10050    317.10491    201.14008   -3204.6694   -2732.9999     1058.522    11870.228 
   10100    315.50839    201.00357   -3200.1191   -2730.8243    1088.9511    11874.219 
   10150    313.46786    200.96657   -3198.8856   -2732.6259    1141.9992    11878.492 
   10200     300.8059    200.46126    -3182.042    -2734.616    1483.4259    11883.085 
   10250     314.5808    200.89196   -3196.3985   -2728.4834    1042.0444     11888.13 
   10300    320.30807    201.08729   -3202.9096   -2726.4756    747.23663    11893.456 
   10350    306.36619    200.68945   -3189.6482   -2733.9517    961.43668    11898.908 
   10400    317.04685    201.12293   -3204.0978   -2732.5146    554.75295    11904.541 
   10450    311.84691     200.9802   -3199.3399   -2735.4912    601.98311    11910.233 
   10500    308.32892    200.82627   -3194.2089    -2735.593     794.2891    11915.974 
   10550    306.27324    200.68509    -3189.503   -2733.9448    826.39063    11921.869 
   10600    311.57553    200.85063    -3195.021    -2731.576    474.25353    11927.898 
   10650    323.77022    201.21119   -3207.0395   -2725.4559    26.168536    11933.896 
   10700    305.44502    200.70884   -3190.2947   -2735.9683     490.1674    11939.674 
   10750    295.54661    200.38538   -3179.5127   -2739.9095    751.76796    11945.417 
   10800    309.32198    200.83797   -3194.5989   -2734.5059    233.23506    11951.254 
   10850     312.5745    200.88212   -3196.0708   -2731.1399    52.697869    11956.962 
   10900    307.52791    200.75841   -3191.9469   -2734.5224    127.73159    11962.435 
   10950    306.02283    200.74911   -3191.6371   -2736.4513    80.897963    11967.696 
   11000    302.58824    200.68231   -3189.4102   -2739.3332    77.339164    11972.755 
   11050    310.18364    205.94756   -3198.2521   -2736.8775   -197.58358    11977.554 
   11100    305.74998    205.81373   -3193.7911   -2739.0112   -144.59971    11982.007 
   11150     297.0626    205.60567   -3186.8556   -2744.9974   -12.970028    11986.134 
   11200    297.01337    205.62556   -3187.5185   -2745.7336   -111.72392    11989.984 
   11250    298.08258    205.63922   -3187.9739   -2744.5986   -238.74479     11993.53 
   11300    300.15405    205.70697   -3190.2324    -2743.776   -287.09929    11996.688 
   11350    299.29149    205.71279   -3190.4262   -2745.2528   -249.99322    11999.428 
   11400    296.63623    205.56868   -3185.6227   -2744.3988    -280.3131     12001.77 
   11450    297.37092    205.60671   -3186.8904   -2744.5737   -361.82136    12003.703 
   11500    285.43955    205.32754   -3177.5848   -2753.0151   -76.033546    12005.211 
   11550    287.07656    205.34282   -3178.0939   -2751.0893   -117.72299    12006.398 
   11600     290.2049    205.51638   -3183.8793   -2752.2215   -219.82276    12007.254 
   11650    288.64665    205.36789   -3178.9297   -2749.5897   -106.73132    12007.737 
   11700    299.25364     205.8032   -3193.4401    -2748.323   -383.86248    12007.864 
   11750    303.31457    205.93613    -3197.871   -2746.7136   -520.30241    12007.513 
   11800    295.56561    205.68418   -3189.4727   -2749.8412   -392.94172    12006.616 
   11850    291.91845    205.48671   -3182.8903   -2748.6838   -309.61926    12005.227 
   11900    288.08202    205.49132   -3183.0441   -2754.5439   -245.53576    12003.392 
   11950    299.72636    205.95256   -3198.4187   -2752.5984   -604.70906    12001.121 
   12000    293.43848    205.71504   -3190.5013   -2754.0338   -407.45624    11998.281 
   12050    301.98437    200.93692   -3197.8975   -2748.7186   -528.63932    11994.887 
   12100    305.90208    201.00576   -3200.1921   -2745.1859   -490.57236    11990.901 
   12150    293.20208    200.57052    -3185.684   -2749.5681     24.85576    11986.363 
   12200    293.08148    200.68357   -3189.4524   -2753.5159    96.975341     11981.48 
   12250    287.19613    200.51642   -3183.8806   -2756.6981    220.26367    11976.341 
   12300    301.66781    200.93593   -3197.8643   -2749.1563   -102.21561    11970.986 
   12350    291.36867    200.61585   -3187.1951   -2753.8063    271.03745    11965.305 
   12400    300.12991     200.8996   -3196.6533   -2750.2328    52.259689     11959.39 
   12450    300.45738    200.91582   -3197.1941   -2750.2865    64.505973    11953.198 
   12500    299.13913    200.93405   -3197.8018    -2752.855    217.10713    11946.716 
   12550    300.10818    200.98857    -3199.619   -2753.2308    214.98939    11940.011 
   12600    316.16022    201.39692   -3213.2307   -2742.9664   -115.34257    11933.071 
   12650    307.82806    201.16098    -3205.366    -2747.495    228.55788    11925.761 
   12700    288.73612    200.67797   -3189.2656   -2759.7925    736.29217    11918.237 
   12750    314.45262    201.50707   -3216.9024   -2749.1779    78.309079    11910.688 
   12800    308.28173    201.30605   -3210.2015   -2751.6558    352.86207    11902.897 
   12850    296.39731    200.95017   -3198.3391   -2757.4706     778.5807    11894.945 
   12900    290.08948    200.76773   -3192.2577   -2760.7716    1021.0782    11887.051 
   12950    297.93154    200.94778   -3198.2593   -2755.1087    976.07235    11879.334 
   13000    307.68816    201.27291   -3209.0971   -2751.4343     827.8445    11871.787 
   13050    316.60441    201.53654   -3217.8847   -2746.9597     652.4993    11864.333 
   13100    307.30483    201.26941   -3208.9803   -2751.8877    956.88268    11856.893 
   13150    292.31488    200.85223   -3195.0745   -2760.2783    1448.6951    11849.604 
   13200    305.90996    201.24974   -3208.3247   -2753.3068    1176.9022    11842.695 
   13250    320.54307    201.66861   -3222.2868   -2745.5033    869.33832    11836.042 
   13300    297.17259    201.09267   -3203.0889   -2761.0672    1529.6066    11829.544 
   13350    305.18936    201.35913    -3211.971    -2758.025    1353.5887    11823.451 
   13400     313.2072    201.64545   -3221.5149   -2755.6429    1131.6514    11817.721 
   13450     300.3291    201.28097   -3209.3658    -2762.649    1491.8927    11812.286 
   13500    298.90134    201.27688   -3209.2294   -2764.6363    1604.7648    11807.264 
   13550    304.28832    201.46685   -3215.5618    -2762.956    1449.9717    11802.726 
   13600    314.34127    201.79422   -3226.4739   -2758.9151    1206.1096    11798.602 
   13650    309.76036    201.74589   -3224.8631   -2764.1181    1363.2477     11794.79 
   13700    301.33461    201.56449   -3218.8162   -2770.6038    1531.1061    11791.372 
   13750    300.46928    201.53785   -3217.9283   -2771.0031    1596.3969    11788.411 
   13800    299.23672    201.56371   -3218.7903   -2773.6984    1582.0459    11785.948 
   13850    294.55505    201.53538   -3217.8459   -2779.7176    1606.7319    11783.997 
   13900    298.57711      201.736   -3224.5333   -2780.4225    1378.8798    11782.559 
   13950    300.16663    201.83069   -3227.6895   -2781.2144    1321.7493    11781.541 
   14000    303.21071    201.90168   -3230.0562   -2779.0532    1339.4294    11780.903 
   14050    314.01275    202.29976   -3243.3253   -2776.2551    990.03529    11780.625 
   14100    293.22119    201.79926   -3226.6419   -2790.4976    1438.8752    11780.604 
   14150    293.94358     201.8596   -3228.6534   -2791.4346    1403.9995        11781 
   14200    296.55413    201.86055   -3228.6852   -2787.5834    1375.8108    11781.837 
   14250    305.79071    202.21396   -3240.4653   -2785.6248     1077.391    11783.078 
   14300    299.48263    201.99666   -3233.2219   -2787.7642    1162.4583    11784.618 
   14350    299.02982    201.97684   -3232.5613   -2787.7771    1123.1063    11786.467 
   14400    296.94229    201.98452   -3232.8174   -2791.1382    1062.1993    11788.619 
   14450     298.5964     202.1224   -3237.4132   -2793.2737    954.37577    11791.033 
   14500    278.74091    201.46121   -3215.3737   -2800.7677    1507.3417    11793.712 
   14550    289.18383    201.84274   -3228.0913   -2797.9523    1139.9027    11796.864 
   14600    284.99777    201.67578   -3222.5259   -2798.6133    1115.8217    11800.378 
   14650    293.86291    202.00329   -3233.4429   -2796.3441    714.95757    11804.206 
   14700    292.68799    201.98802   -3232.9342   -2797.5829    703.50682    11808.168 
   14750    297.31113    201.98682   -3232.8942   -2790.6664    645.65267    11812.235 
   14800    282.10678    201.68421    -3222.807   -2803.1946    868.03643    11816.418 
   14850    288.79869    201.87037   -3229.0125   -2799.4463    639.48139    11820.777 
   14900    282.86197    201.65901   -3221.9669   -2801.2311    792.67598    11825.267 
   14950     281.4736    201.67644    -3222.548   -2803.8773    800.69618    11829.903 
   15000    288.61753    202.02191   -3234.0636   -2804.7669     449.8819    11834.695 
   15050    288.63011    197.02445   -3234.1482   -2804.8328    295.39933    11839.502 
   15100     299.9828    197.21152   -3240.3842   -2794.1825    8.0034309    11844.183 
   15150    287.69403    196.92223   -3230.7409   -2802.8178    211.44878    11848.638 
   15200    290.65164     197.0031   -3233.4368   -2801.1145     8.783627    11852.934 
   15250    287.82003    196.90504   -3230.1679   -2802.0574    95.997623    11856.994 
   15300     282.2074    196.74405   -3224.8016   -2805.0395    198.26081    11860.846 
   15350    283.26667     196.7841   -3226.1366   -2804.7989    138.42512    11864.541 
   15400      287.743    196.80345   -3226.7818   -2798.7859    25.921987    11868.049 
   15450    298.68236    197.12087   -3237.3624    -2793.095   -281.45016    11871.296 
   15500    279.52595    196.51694   -3217.2313   -2801.4576    230.99078    11874.181 
   15550     289.3984    196.82881    -3227.627   -2797.1688   -44.465509    11876.875 
   15600     295.9737    196.90752   -3230.2507   -2790.0122     -106.405    11879.291 
   15650    288.37281    196.71738   -3223.9126   -2794.9799    97.645672    11881.377 
   15700    288.66789    196.78082   -3226.0275   -2796.6559   -38.709347    11883.223 
   15750    280.00563    196.45089   -3215.0296   -2798.5424    236.26075    11884.788 
   15800    290.38279    196.70378   -3223.4593   -2791.5369    121.36498    11886.167 
   15850    284.41614    196.61065   -3220.3549   -2797.3074    199.93941    11887.358 
   15900    289.70807    196.72298   -3224.0993   -2793.1805   -49.915949    11888.353 
   15950    304.05532    197.08697   -3236.2322    -2783.973   -381.16596     11889.02 
   16000    281.51712    196.36422   -3212.1406   -2793.4052     252.9898     11889.25 
   16050    292.94746    196.73695   -3224.5651   -2788.8279   -40.837277    11889.259 
   16100    286.00352    196.54703   -3218.2342   -2792.8256    185.89586    11888.983 
   16150    273.03975    196.11814   -3203.9381   -2797.8122    600.52921    11888.524 
   16200       298.11    196.83672   -3227.8907   -2784.4746    3.9021553    11888.021 
   16250    292.85261     196.7067   -3223.5567   -2787.9607    170.37213    11887.251 
   16300    285.40633    196.43896   -3214.6321   -2790.1118    364.01478    11886.263 
   16350    290.85366     196.4996   -3216.6535   -2784.0307    301.96647    11885.142 
   16400    293.80098    196.53423   -3217.8078   -2780.8011     318.7257    11883.883 
   16450    297.11162    196.58278   -3219.4261   -2777.4951    215.60969    11882.478 
   16500    300.94916    196.72274   -3224.0913   -2776.4522    68.171266    11880.858 
   16550    291.42014    196.44145    -3214.715   -2781.2497    317.61045    11878.977 
   16600    296.54368    196.52271   -3217.4235   -2776.3373    328.20128    11876.923 
   16650    291.51216    196.35882   -3211.9607   -2778.3584     513.6753    11874.738 
   16700    298.00467    196.46132   -3215.3772   -2772.1178    501.33778    11872.466 
   16750     309.7336    196.76553   -3225.5177   -2764.8124    282.62492    11870.121 
   16800    309.98189    196.84281   -3228.0935    -2767.019    226.73028    11867.594 
   16850    301.44351    196.53235   -3217.7452   -2769.3708    496.16857    11864.861 
   16900    296.56928    196.37814   -3212.6045   -2771.4802    728.83778    11862.052 
   16950    294.77528     196.2954   -3209.8465   -2771.3906    855.20317    11859.276 
   17000    308.87672    196.71723   -3223.9076   -2764.4769    494.03445    11856.579 
   17050    301.88669    196.48094   -3216.0314   -2766.9978    707.86195    11853.853 
   17100      301.345     196.3916   -3213.0533   -2764.8254    806.13017     11851.14 
   17150    292.53753     196.1962   -3206.5399   -2771.4125    1056.4263    11848.509 
   17200    299.88105    196.45684   -3215.2282   -2769.1778    977.56581    11846.062 
   17250    300.47178    196.35927   -3211.9757   -2765.0467    960.17025    11843.802 
   17300    303.70769    196.45422   -3215.1407   -2763.3985    804.71079    11841.706 
   17350    321.11605     196.9262   -3230.8734   -2753.2376    411.73815    11839.668 
   17400    309.44774    196.62175   -3220.7249   -2760.4448    792.36928    11837.534 
   17450    291.61583    196.02879   -3200.9597   -2767.2032    1359.0157    11835.494 
   17500     314.1107    196.79131    -3226.377   -2759.1611    738.85581    11833.768 
   17550    303.13876    196.53002   -3217.6673   -2766.7714    980.92748    11832.137 
   17600    310.27118    196.72058   -3224.0194   -2762.5146    769.71928    11830.646 
   17650    308.75615    196.64014   -3221.3378   -2762.0865    924.70836    11829.242 
   17700    296.98415    196.27232   -3209.0772   -2767.3358    1342.0686    11828.007 
   17750    313.10715    196.77955   -3225.9848   -2760.2617    883.01079    11827.089 
   17800    305.79643    196.55592   -3218.5307   -2763.6817    1050.9497    11826.337 
   17850    299.58687    196.38074   -3212.6912   -2767.0784    1184.8032    11825.816 
   17900    298.27054    196.26213   -3208.7378    -2765.083    1256.5237    11825.576 
   17950    303.20713    196.46021   -3215.3402   -2764.3425    1138.2916     11825.66 
   18000    315.66935    196.80811    -3226.937   -2757.4028    833.34879    11826.016 
   18050    296.32711    201.22121   -3207.3737   -2766.6095    1342.6862     11826.55 
   18100    315.23318    201.82461   -3227.4871   -2758.6016    815.41062    11827.419 
   18150    295.43605    201.24544   -3208.1813   -2768.7426     1285.743    11828.489 
   18200    303.72066    201.53518   -3217.8394   -2766.0779    1106.5561    11829.899 
   18250    304.23491    201.50974   -3216.9912   -2764.4649    1120.7578    11831.618 
   18300    296.27217    201.21506   -3207.1686   -2766.4862    1321.4494     11833.65 
   18350    311.91408     201.6945     -3223.15   -2759.2015    782.10505    11836.044 
   18400    302.83544    201.34369   -3211.4565   -2761.0117    1005.1257    11838.603 
   18450    287.37755    200.94861    -3198.287   -2770.8346    1398.8374    11841.431 
   18500    293.30477    201.16814   -3205.6047   -2769.3361    1206.7943    11844.704 
   18550    292.42805    201.19868   -3206.6226   -2771.6581    1164.2663    11848.375 
   18600    308.86395    201.75479   -3225.1597    -2765.748    593.97824    11852.366 
   18650    314.34646    201.82575    -3227.525   -2759.9585    434.64326    11856.432 
   18700    303.96328    201.54468   -3218.1559   -2766.0335    603.60995    11860.496 
   18750    307.69792    201.70381   -3223.4604    -2765.783    407.16161    11864.597 
   18800    291.08952    201.20272   -3206.7572   -2773.7836    766.78739      11868.7 
   18850    288.78886    201.07029    -3202.343   -2772.7915    837.17196    11872.951 
   18900    293.03474    201.18736   -3206.2453   -2770.3784    742.05488     11877.41 
   18950    310.54577    201.74804   -3224.9348   -2763.0215    123.75623    11882.004 
   19000    305.06776    201.59246   -3219.7488   -2765.9836    117.17083    11886.458 
   19050    294.37012    201.21877   -3207.2924   -2769.4391    390.40962    11890.738 
   19100    289.87283    201.06216   -3202.0719    -2770.908    501.19696    11894.965 
   19150    289.77755    201.09124   -3203.0413   -2772.0191    446.91825    11899.225 
   19200    297.48489    201.29283    -3209.761   -2767.2747     260.3877    11903.482 
   19250    287.96586    200.95466   -3198.4887   -2770.1613    562.40592    11907.679 
   19300    309.79223    201.64821   -3221.6071   -2760.8147   -162.95298    11911.878 
   19350    305.39834    201.58018   -3219.3395   -2765.0826   -142.72695    11915.774 
   19400    271.89617    200.66275   -3188.7584   -2784.3335    740.77909     11919.41 
   19450    298.80315     201.3918   -3213.0599   -2768.6129    72.432727      11923.1 
   19500    297.36532    201.31103   -3210.3678   -2768.0594    47.203039    11926.623 
   19550    298.44559    201.34079   -3211.3595   -2767.4443   -105.37749    11929.912 
   19600    290.26413     201.1361   -3204.5368   -2772.7909    73.871533    11932.919 
   19650    291.27325    201.18185   -3206.0617   -2772.8148    4.6219873    11935.704 
   19700    288.22405    201.02524   -3200.8414     -2772.13    44.335992     11938.25 
   19750    291.82019     201.0106   -3200.3532   -2766.2928   -13.717278    11940.547 
   19800    298.96191    201.30936   -3210.3119   -2765.6287   -257.92847    11942.565 
   19850    295.45346    201.15401   -3205.1337   -2765.6691   -182.27816    11944.207 
   19900    303.12711    201.45838   -3215.2794   -2764.4007    -399.7097    11945.453 
   19950    301.26959    201.43722   -3214.5739   -2766.4582   -372.03618    11946.224 
   20000    295.96973    201.14677   -3204.8925   -2764.6599   -90.176389    11946.514 
   20050     280.8823    195.73983   -3191.3278   -2773.5367     382.0314    11946.467 
   20100    290.67468    195.95167    -3198.389   -2766.0325    76.097599    11946.285 
   20150    302.07398     196.4118   -3213.7267   -2764.4145   -297.59143    11945.838 
   20200    295.72843    196.05955   -3201.9851   -2762.1114    -41.60161    11944.957 
   20250    294.94039    196.04477   -3201.4922   -2762.7908   -99.401034     11943.71 
   20300    310.61204    196.51021    -3217.007   -2754.9951   -474.68842    11942.077 
   20350    299.42408    196.07443   -3202.4811   -2757.1105   -61.797219    11939.919 
   20400    303.20619    196.15589   -3205.1965   -2754.2002   -27.067215    11937.366 
   20450    295.39359    195.94358   -3198.1192   -2758.7436    206.64701    11934.476 
   20500    303.85365    196.13889   -3204.6296   -2752.6704    107.76898    11931.323 
   20550    300.11209    195.97167   -3199.0557   -2752.6617    295.56751    11927.912 
   20600    304.66904    196.14166   -3204.7219   -2751.5498    248.54989    11924.295 
   20650    301.70868    195.99197   -3199.7324   -2750.9636    426.97381    11920.468 
   20700    310.19689    196.16279   -3205.4263    -2744.032    305.01107    11916.501 
   20750    315.24716    196.23979   -3207.9932   -2739.0869    274.25264    11912.327 
   20800    304.25995    195.79227   -3193.0756    -2740.512    680.54613     11907.95 
   20850    319.48026    196.25132   -3208.3772   -2733.1745    401.69877    11903.526 
   20900    325.57093    196.43431   -3214.4768   -2730.2148    365.67007    11898.971 
   20950    324.38786    196.29433    -3209.811   -2727.3086    593.41145    11894.247 
   21000    309.89242    195.74761    -3191.587   -2730.6455    1139.8432    11889.471 
   21050    324.30385    196.24811   -3208.2703   -2725.8929    773.91188    11884.856 
   21100    312.57096    195.89135   -3196.3785   -2731.4529    1144.1008    11880.324 
   21150    316.73066    195.95047   -3198.3489   -2727.2361    1215.7783    11875.981 
   21200    323.33871    196.07629   -3202.5431   -2721.6013    1198.4459    11871.903 
   21250    326.08529    196.16828   -3205.6094   -2720.5823    1228.0711    11868.081 
   21300    318.42559    195.98903   -3199.6345   -2726.0005    1467.1276    11864.533 
   21350    329.04472    196.26767   -3208.9224   -2719.4933     1127.307    11861.372 
   21400    325.61097    196.13302   -3204.4342   -2720.1125    1248.7705    11858.469 
   21450     318.9558    195.96033   -3198.6776   -2724.2551    1504.2103    11855.838 
   21500     317.5259    195.86425   -3195.4749   -2723.1792    1496.6171    11853.624 
   21550     323.4913    196.01059   -3200.3531   -2719.1843    1318.5417    11851.817 
   21600    321.75986    196.08227   -3202.7423   -2724.1489    1373.8939    11850.344 
   21650    324.43198    196.10835   -3203.6118   -2721.0438    1349.2834    11849.234 
   21700    324.24865    196.10625   -3203.5415   -2721.2462    1377.6303    11848.483 
   21750    317.90724    195.92826   -3197.6085   -2724.7456    1568.4146    11848.107 
   21800    319.48577    196.01921   -3200.6404   -2725.4295    1460.9364    11848.203 
   21850    331.76723    196.39465   -3213.1551   -2719.6765    1116.3823    11848.718 
   21900    313.59334    196.01152   -3200.3842   -2733.9378    1512.2398    11849.534 
   21950     309.1513      195.755   -3191.8332   -2731.9941    1674.3052    11850.792 
   22000     306.8722    195.75555   -3191.8517   -2735.4025    1681.6915    11852.603 
   22050    319.42249    196.07924   -3202.6412   -2727.5245    1312.5996    11854.979 
   22100    326.45231    196.31272   -3210.4239   -2724.8508     1021.143    11857.738 
   22150    317.69713    196.17559   -3205.8529   -2733.3025    1152.5265    11860.745 
   22200    314.58463    196.10218    -3203.406   -2735.4852    1190.4698     11864.06 
   22250     317.5775     196.2602   -3208.6733   -2736.3008    994.72756    11867.676 
   22300    313.67344    196.14711   -3204.9038   -2738.3383    981.04503    11871.524 
   22350    314.65691    196.21294    -3207.098   -2739.0697    861.35212    11875.593 
   22400    306.56916    196.07764   -3202.5878   -2746.5895    1031.4156    11879.838 
   22450    303.31924    195.98352   -3199.4506   -2748.2862    1082.1236    11884.339 
   22500    332.81294    196.78684   -3226.2279   -2731.1938    166.91575    11889.078 
   22550    327.57052     196.7718   -3225.7268   -2738.4904    90.038867    11893.652 
   22600    296.08984    195.92992    -3197.664   -2757.2528    736.10762    11898.037 
   22650    314.40368    196.44826    -3214.942   -2747.2903    205.53524    11902.469 
   22700    298.64794      196.093   -3203.0999   -2758.8837    571.64539    11906.786 
   22750    296.45635    196.06266   -3202.0886   -2761.1322    504.92152     11911.11 
   22800     317.7381    196.60887   -3220.2957   -2747.6843   -134.51122    11915.401 
   22850    293.47059    196.03295   -3201.0985   -2764.5832    408.87523    11919.403 
   22900    291.39582    196.01003   -3200.3345   -2766.9053    341.60009     11923.32 
   22950    310.95381    196.54066    -3218.022   -2755.5018   -218.32386    11927.133 
   23000    309.07953    196.48035   -3216.0117   -2756.2793   -175.58359    11930.584 
   23050     303.9913    196.37286   -3212.4286   -2760.2645   -138.17401    11933.649 
   23100     292.9867    195.96473   -3198.8244   -2763.0289    159.26648    11936.374 
   23150    294.52743    196.03863   -3201.2877   -2763.2005    131.13834    11938.866 
   23200    293.33516    196.03442   -3201.1474   -2764.8335    137.76501     11941.15 
   23250    290.76577     195.9602   -3198.6733   -2766.1813      107.726    11943.228 
   23300    305.71103    196.33972   -3211.3241   -2756.6021   -326.43738     11945.06 
   23350    304.76849    196.32672   -3210.8906   -2757.5706   -367.55659    11946.456 
   23400    301.03443    196.28758   -3209.5859     -2761.82   -294.34942    11947.351 
   23450     298.0971    196.21542   -3207.1807   -2763.7839    -217.2396    11947.814 
   23500    310.67511     196.6165   -3220.5501   -2758.4445   -539.39264    11947.827 
   23550    294.47026    196.16144   -3205.3815   -2767.3793    -147.4737    11947.284 
   23600    289.65992    196.06575   -3202.1916   -2771.3444   -48.297622    11946.336 
   23650    302.59321    196.45098   -3215.0328   -2764.9484   -378.02706     11945.03 
   23700     310.9879    196.70523   -3223.5077   -2760.9368   -592.87434     11943.21 
   23750    290.91813    196.07302   -3202.4339   -2769.7153   -58.155278    11940.789 
   23800    282.51683     195.8708   -3195.6932   -2775.4708    137.70712    11937.998 
   23850    308.21037    196.62632   -3220.8774   -2762.4378   -498.43356    11934.927 
   23900    300.60697    196.43859   -3214.6197   -2767.4896   -210.93945    11931.315 
   23950     290.5622    196.17895   -3205.9651   -2773.7758    144.56212    11927.258 
   24000    291.40774    196.16064   -3205.3548   -2771.9078    199.64073    11922.948 
   24050    309.99521    196.73955   -3224.6516   -2763.5573    -190.1457    11918.376 
   24100    291.14491    196.17356   -3205.7854   -2772.7294    304.66316    11913.421 
   24150    313.73485    196.73492   -3224.4973   -2757.8405     -114.199    11908.223 
   24200    300.78031    196.35038   -3211.6794   -2764.2914    284.25225    11902.668 
   24250    296.86495    196.32008   -3210.6692   -2769.1051    391.36593    11896.889 
   24300    303.52612    196.55154   -3218.3848   -2766.9127    244.89283    11890.964 
   24350    299.69442    196.33863   -3211.2876   -2765.5149    430.96876    11884.832 
   24400    301.81088    196.39782   -3213.2606   -2764.3398    460.07113    11878.572 
   24450    298.60993    196.43595   -3214.5318   -2770.3722    630.07748    11872.213 
   24500    299.45297    196.46126   -3215.3754   -2769.9618    756.52549    11865.833 
   24550    294.10661    196.33279   -3211.0928   -2773.6315    1007.0188     11859.52 
   24600    290.24532    196.23042   -3207.6808   -2775.9629     1175.015    11853.391 
   24650    304.44464    196.66705   -3222.2351   -2769.3968    874.10599    11847.498 
   24700    299.88673     196.5365   -3217.8833   -2771.8245    920.35099    11841.748 
   24750     312.2365     196.8936   -3229.7867   -2765.3585    550.64327    11836.108 
   24800    308.38015    196.75115   -3225.0384   -2766.3463    784.01407     11830.43 
   24850     287.9412     196.2221   -3207.4032   -2779.1125    1402.0063    11824.836 
   24900    306.79755    196.82436   -3227.4785   -2771.1404    922.26599      11819.6 
   24950    304.43112    196.74911   -3224.9702    -2772.152     1034.473    11814.547 
   25000    300.34758    196.63522    -3221.174   -2774.4298    1188.3375    11809.688 
   25050     296.7038    196.49486   -3216.4953   -2775.1709    1308.9844    11805.129 
   25100    320.35062    197.17892   -3239.2975   -2762.8002     811.3047    11800.847 
   25150    295.03169    196.56144   -3218.7145   -2779.8772    1426.9621    11796.718 
   25200    313.09081    197.17929   -3239.3098    -2773.611    1024.3677    11792.918 
   25250    294.69038    196.65153   -3221.7176    -2783.388    1505.4397    11789.385 
   25300    311.50083    197.10435   -3236.8116   -2773.4777    1095.2369    11786.248 
   25350    295.00272    196.60308   -3220.1028   -2781.3086    1552.8887    11783.413 
   25400    306.08116    196.82306   -3227.4353   -2772.1628    1342.9577    11780.996 
   25450    321.80013    197.36812    -3245.604   -2766.9507    929.17227    11778.925 
   25500    305.48405    196.93803   -3231.2677   -2776.8833    1400.1906    11777.067 
   25550    299.41741    196.75103   -3225.0343   -2779.6736    1654.1506    11775.584 
   25600    300.27937    196.80289    -3226.763   -2780.1202    1630.4229     11774.64 
   25650    306.80681    197.07859   -3235.9529    -2779.601    1294.3515    11774.209 
   25700    319.48094    197.43606   -3247.8686   -2772.6649     814.1761      11774.1 
   25750    299.67544    196.86016   -3228.6719   -2782.9274    1301.6198    11774.159 
   25800    301.76821    197.01095   -3233.6983    -2784.841    1290.7149    11774.524 
   25850    293.44661    196.72775   -3224.2584   -2787.7788    1430.5409    11775.262 
   25900    299.41825    196.94739   -3231.5797   -2786.2178    1167.2136    11776.403 
   25950    309.80755    197.34636   -3244.8786   -2784.0633    864.74705    11777.843 
   26000    306.42852    197.24728   -3241.5759   -2785.7867    978.25014    11779.432 
   26050    287.48722    196.77075   -3225.6918   -2798.0764    1419.6911    11781.235 
   26100    301.46964    197.26333    -3242.111   -2793.6977     901.8789    11783.425 
   26150    281.73081    196.81149   -3227.0497   -2807.9965     1273.152    11785.835 
   26200     302.2622    197.39564   -3246.5212   -2796.9291    629.06361    11788.563 
   26250    300.27037    197.40872   -3246.9572   -2800.3278    591.15959    11791.376 
   26300    286.07459    197.01092   -3233.6974   -2808.1832    905.12516    11794.211 
   26350    300.05574    197.40256   -3246.7519   -2800.4417    453.54041    11797.184 
   26400    294.82557    197.20265   -3240.0882   -2801.5575    551.05198     11800.15 
   26450    293.32644    197.20133   -3240.0445   -2803.7436    509.44848    11803.103 
   26500     286.9015    197.00592   -3233.5306   -2806.7864     638.2878    11806.045 
   26550    278.58917    196.85065   -3228.3549   -2813.9746    814.28152    11809.035 
   26600     287.3967    197.08225   -3236.0748    -2808.594    504.75022    11812.155 
   26650    284.06988    197.09772   -3236.5907   -2814.0582    424.40079    11815.281 
   26700    284.22785    197.12143   -3237.3812   -2814.6138     452.1395    11818.349 
   26750    282.19789    197.12524    -3237.508     -2817.76     421.7815    11821.381 
   26800    293.91329    197.43854   -3247.9514   -2810.7777    56.747098    11824.336 
   26850    296.16392    197.38628   -3246.2093   -2805.6879    56.847547    11827.055 
   26900    285.17855    197.20033   -3240.0109   -2815.8294    244.71639    11829.531 
   26950    291.39613    197.42624   -3247.5413   -2814.1116   -1.1478476    11831.823 
   27000    283.53309    197.25251   -3241.7502   -2820.0163     74.62622    11833.856 
   27050    281.99719     197.1122   -3237.0734   -2817.6239    147.17076    11835.655 
   27100    270.33165    196.82586   -3227.5287   -2825.4309    418.38275    11837.278 
   27150    281.81891    197.18285   -3239.4282   -2820.2439    68.519011    11838.801 
   27200    278.97268    197.02224   -3234.0746   -2819.1239    128.54915     11840.11 
   27250    284.88867    197.10812   -3236.9373    -2813.187    75.117301    11841.193 
   27300    278.33089    196.97233    -3232.411   -2818.4149    240.61861     11842.04 
   27350    286.52426    197.15207   -3238.4025   -2812.2193    45.979891    11842.711 
   27400    284.11561    197.15734   -3238.5779   -2815.9774    68.786065    11843.128 
   27450    278.80935    196.96965   -3232.3217   -2817.6139    226.22269    11843.315 
   27500    283.97252    197.09833   -3236.6111   -2814.2235    79.452714    11843.317 
   27550    281.39258    196.99828   -3233.2761   -2814.7259    155.25837    11843.086 
   27600    279.37326    196.91678   -3230.5592   -2815.0126    225.29721    11842.655 
   27650    285.62181    197.11916   -3237.3053   -2812.4645    120.94862    11842.036 
   27700    287.38929    197.12151   -3237.3837   -2809.9139    206.00136    11841.205 
   27750    282.54913    196.92148   -3230.7159   -2810.4454    334.90349     11840.19 
   27800    291.26324    197.19264   -3239.7546   -2806.5226    107.71607    11839.021 
   27850    274.82913    196.71901   -3223.9669   -2815.1794    562.01246    11837.676 
   27900    296.20774    197.26476   -3242.1586    -2801.572    107.50081    11836.265 
   27950    276.57815    196.65628   -3221.8761    -2810.487    633.41549    11834.667 
   28000     283.2879    196.89002   -3229.6675   -2808.2982    387.97423    11833.059 
   28050    291.26529     197.1282   -3237.6067   -2804.3717     173.3352    11831.362 
   28100    292.38858    197.13443   -3237.8143   -2802.9085    277.85345    11829.464 
   28150    286.66545    196.92912   -3230.9705   -2804.5774    522.46104    11827.423 
   28200    291.26713    197.03851   -3234.6169   -2801.3791    458.53336    11825.334 
   28250    276.19256     196.5768   -3219.2268   -2808.4113    922.84745    11823.217 
   28300    300.49282    197.25986   -3241.9954   -2795.0351    346.18266     11821.23 
   28350    286.00837    196.79909   -3226.6364   -2801.2207    691.09698    11819.177 
   28400     309.7609    197.52449   -3250.8163   -2790.0704    19.277015    11817.085 
   28450    289.98651    196.90813    -3230.271   -2798.9381    610.01473    11814.775 
   28500    291.73471    197.03169   -3234.3897   -2800.4564    709.74478    11812.437 
   28550     297.3755    197.12301   -3237.4336   -2795.1101    631.84032    11810.168 
   28600    309.17503    197.47171   -3249.0572   -2789.1827     406.8837    11807.891 
   28650    300.13836    197.24261   -3241.4204   -2794.9873    729.34605    11805.542 
   28700    295.06243    197.03287   -3234.4292   -2795.5462    899.53119    11803.249 
   28750    297.00176    197.06105   -3235.3682   -2793.6006    840.83566    11801.087 
   28800    299.38134    197.03569   -3234.5228   -2789.2158    950.60546    11799.051 
   28850    279.85452    196.46041    -3215.347   -2799.0846    1464.0691    11797.235 
   28900    307.24451    197.21792   -3240.5972   -2783.5943    723.34788    11795.799 
   28950    319.16385    197.52833   -3250.9445   -2776.2124    532.56867    11794.457 
   29000    303.30922    197.06622   -3235.5406   -2784.3912    982.09986    11793.093 
   29050    292.38911    196.87291   -3229.0969   -2794.1903    1173.6703    11791.915 
   29100    294.94677    196.79006   -3226.3354   -2787.6244    1111.9975    11791.026 
   29150     293.6093    196.76644    -3225.548   -2788.8265    1111.1874    11790.408 
   29200    305.48327    197.13319    -3237.773   -2783.3898    841.01173    11790.041 
   29250    290.61895    196.76058   -3225.3528   -2793.0792    1228.9479    11789.841 
   29300    306.43935     197.1923   -3239.7432   -2783.9379    859.96717    11789.919 
   29350    299.42926    196.94347   -3231.4491   -2786.0708     1101.057     11790.18 
   29400    297.30732    196.90967   -3230.3222   -2788.1001    1185.9554    11790.689 
   29450    304.57988    197.11953   -3237.3175    -2784.278    953.38486    11791.486 
   29500    289.28084    196.67271   -3222.4236   -2792.1403    1280.6025    11792.498 
   29550    286.95192     196.5815   -3219.3833    -2792.564     1333.867    11793.867 
   29600    303.15553    197.09814   -3236.6047   -2785.6838    887.55178    11795.612 
   29650    309.99983    197.20669   -3240.2231   -2779.1219     689.1929    11797.521 
   29700    295.10635    196.84132   -3228.0441   -2789.0958    1087.8825    11799.515 
   29750    295.41203    196.71609   -3223.8697   -2784.4667    1172.1481    11801.771 
   29800    309.57448    197.06691   -3235.5635   -2775.0949    731.28892    11804.303 
   29850    301.01851    196.83604    -3227.868   -2780.1258    853.41476    11806.931 
   29900    292.78895    196.55684   -3218.5613   -2783.0599     1106.878    11809.704 
   29950    291.85192    196.52179   -3217.3929   -2783.2853    1074.0437    11812.751 
   30000    309.40612    197.03816   -3234.6052   -2774.3871    565.42692    11816.027 
   30050    299.60979    196.81372   -3227.1239    -2781.477    801.08324    11819.345 
   30100    294.08227    196.66353   -3222.1178   -2784.6927    894.00901     11822.78 
   30150    308.83988    197.08292   -3236.0974   -2776.7215    514.38443    11826.352 
   30200    292.03774    196.58642   -3219.5475   -2785.1635    963.18869    11829.946 
   30250    294.50437    196.64218   -3221.4059    -2783.353    804.57676    11833.712 
   30300    307.54193    197.01361   -3233.7869   -2776.3416    387.17406     11837.58 
   30350     293.3887     196.5306   -3217.6868   -2781.2933    765.73576    11841.385 
   30400    301.58934    196.78825   -3226.2751   -2777.6838    479.65133    11845.257 
   30450    300.83546    196.72372   -3224.1239   -2776.6539    463.99914    11849.119 
   30500    295.76737    196.67118   -3222.3726   -2782.4411    535.55215    11852.925 
   30550    301.16815     196.7864   -3226.2133   -2778.2485     397.3111    11856.717 
   30600    305.90814    196.89699   -3229.8998   -2774.8846    321.11252    11860.424 
   30650    288.43036    196.36676   -3212.2254   -2783.2071    702.06875    11864.032 
   30700    296.69852    196.59984   -3219.9946    -2778.678    416.90607    11867.677 
   30750    304.52377    196.81065   -3227.0217   -2774.0656    235.05368    11871.259 
   30800     308.6102    196.82468   -3227.4894   -2768.4551    140.50489    11874.671 
   30850    309.21518    196.92303   -3230.7678   -2770.8337    78.702968    11877.847 
   30900    304.46738    196.73163   -3224.3877   -2771.5156    203.19934     11880.78 
   30950    293.89458    196.39425   -3213.1416   -2775.9957    411.71716    11883.536 
   31000    289.73384    196.30668   -3210.2227   -2779.2656    440.12669    11886.201 
   31050    294.48077    196.42202   -3214.0674   -2776.0496    292.59866    11888.793 
   31100    303.44906    196.56789   -3218.9297   -2767.5722    90.393605    11891.243 
   31150    303.57642     196.4861   -3216.2034   -2764.6565    110.80913    11893.447 
   31200    314.73506    196.85712   -3228.5707   -2760.4261   -200.92594    11895.379 
   31250    299.93765    196.46126   -3215.3753   -2769.2408    251.09392    11896.937 
   31300    284.51266    196.00551   -3200.1837   -2776.9927    681.96054    11898.326 
   31350     307.3764    196.64463   -3221.4876   -2764.2885   -10.388733    11899.705 
   31400     288.2322    196.03223   -3201.0743   -2772.3507    515.82257    11900.853 
   31450    302.87984    196.48329   -3216.1098    -2765.599    165.48845    11901.916 
   31500    310.31919    196.58736   -3219.5787   -2758.0024   -49.200492    11902.778 
   31550    295.42338    196.25577   -3208.5256   -2769.1057     285.5365     11903.33 
   31600    298.57367    196.28459   -3209.4863   -2765.3805    291.86524    11903.706 
   31650    290.53909    195.97677   -3199.2255   -2767.0706    555.53051     11903.96 
   31700    311.37406    196.49659   -3216.5531   -2753.4077    86.913212     11904.15 
   31750     319.0604    196.65009   -3221.6696   -2747.0914   -115.79211    11904.079 
   31800     306.3286    196.29873   -3209.9575    -2754.317    260.14599    11903.642 
   31850    291.78934    195.75832   -3191.9439   -2757.9293    748.77307    11903.033 
   31900    317.67577    196.52465   -3217.4883   -2744.9697    135.86473    11902.434 
   31950    314.18028    196.39236   -3213.0788   -2745.7594    257.00474    11901.631 
   32000    300.58505     195.9951   -3199.8368   -2752.7393    674.32863    11900.651 
   32050    305.95264    201.18911   -3206.3037   -2751.2223    556.95544    11899.696 
   32100     306.8868    201.13079   -3204.3597   -2747.8889    621.21817    11898.757 
   32150    310.44196    201.26462   -3208.8207   -2747.0618    527.29531    11897.817 
   32200    304.52357    201.09232   -3203.0773   -2750.1216    655.52533    11896.868 
   32250     299.7005    200.91721   -3197.2403   -2751.4585    881.18004    11895.974 
   32300    302.44905    200.92098   -3197.3659   -2747.4959    849.88021    11895.232 
   32350    319.04231    201.34514   -3211.5047   -2736.9535    393.49486      11894.6 
   32400    302.87492    200.78736   -3192.9121   -2742.4086    933.40785    11893.921 
   32450     303.6053    200.75242   -3191.7475   -2740.1576     1009.422    11893.395 
   32500    316.94842    201.14558   -3204.8528    -2733.416    714.32659    11893.072 
   32550    320.69925    201.21779   -3207.2597   -2730.2438     686.6352    11892.842 
   32600    317.07251    201.03273    -3201.091   -2729.4696    865.30365    11892.676 
   32650    310.82317    200.87134   -3195.7114   -2733.3854    1015.5057    11892.647 
   32700    309.78092    200.78539   -3192.8465   -2732.0708    1048.7234     11892.83 
   32750    314.58342    200.96645   -3198.8817   -2730.9627    909.89227    11893.251 
   32800    315.57152     200.9169     -3197.23   -2727.8413    960.17839    11893.863 
   32850    306.76629    200.69609   -3189.8695   -2733.5779    1138.9895    11894.678 
   32900    314.99984    200.89126   -3196.3754   -2727.8371    925.71953    11895.763 
   32950    315.21614    200.81728   -3193.9095   -2725.0494    942.30417    11897.029 
   33000    325.76566    201.13794   -3204.5981   -2720.0464    592.03716    11898.451 
   33050    319.20784     205.8976   -3196.5866   -2721.7892    761.82635    11899.907 
   33100    305.92557    205.47606   -3182.5355   -2727.4944    1257.4493    11901.458 
   33150    310.53611    205.71803   -3190.6009    -2728.702    1060.8282    11903.364 
   33200    323.53214    206.18584   -3206.1947   -2724.9651    558.64868    11905.543 
   33250    312.70154    205.78134   -3192.7113   -2727.5915     847.1224    11907.767 
   33300    315.61596    205.75699   -3191.8997   -2722.4448    824.13844    11910.124 
   33350    301.89834    205.41575   -3180.5248   -2731.4739    1186.1517    11912.641 
   33400    298.86314    205.30772   -3176.9239   -2732.3876    1291.7779    11915.495 
   33450    310.64835    205.64433   -3188.1444   -2726.0785    908.26706    11918.727 
   33500     311.6965    205.65461   -3188.4869    -2724.862    816.12355    11922.156 
   33550    305.24429    205.50822   -3183.6074   -2729.5797    908.19494    11925.738 
   33600    306.02255    205.52512   -3184.1707   -2728.9853    805.52641    11929.516 
   33650    330.49541    206.19017   -3206.3391   -2714.7522    148.49968    11933.407 
   33700    307.33437    205.62156   -3187.3855   -2730.2489     722.5541    11937.175 
   33750    308.78626    205.63577    -3187.859   -2728.5629    672.07104    11940.997 
   33800    309.71057    205.65954   -3188.6513   -2727.9803    527.44054    11944.894 
   33850    299.71164    205.44223   -3181.4075   -2735.6092    633.35304     11948.81 
   33900    308.71173    205.73646   -3191.2153     -2732.03    360.25162    11952.757 
   33950    289.73845    205.21708   -3173.9026   -2742.9386     790.2071     11956.68 
   34000    301.74339    205.60945   -3186.9817   -2738.1613    447.51396    11960.707 
   34050    303.96052    205.64614   -3188.2045   -2736.0863     279.0003    11964.719 
   34100    306.80281    205.73192   -3191.0641   -2734.7182    62.797843    11968.613 
   34150    302.53601    205.69839   -3189.9464    -2739.947      103.053     11972.29 
   34200     300.3454    205.59747   -3186.5822   -2739.8412    183.87977    11975.751 
   34250    299.86442    205.61158   -3187.0526    -2741.027    152.63565    11979.041 
   34300    302.84253    205.72752   -3190.9174   -2740.4621   -3.6562351    11982.127 
   34350    299.21139    205.69635   -3189.8785   -2744.8242   -59.271367    11984.958 
   34400    290.38012    205.37145   -3179.0484     -2747.13    166.95436    11987.509 
   34450    288.36531    205.37788   -3179.2626   -2750.3411    130.24301     11989.88 
   34500    299.80575    205.82334   -3194.1113    -2748.173   -300.75718    11992.027 
   34550    293.01224    205.60717   -3186.9058   -2751.0723   -124.51733    11993.775 
   34600     293.2091      205.661   -3188.7001   -2752.5738   -195.05154    11995.172 
   34650    297.00197    205.85403   -3195.1343   -2753.3663   -446.52627    11996.185 
   34700    280.37218    205.45295    -3181.765   -2764.7327   -48.217103    11996.731 
   34750    283.98917    205.60783   -3186.9275   -2764.5152   -179.58411    11996.947 
   34800    283.23751    205.69377   -3189.7923    -2768.498    -251.6655    11996.812 
   34850    273.85892    205.48738   -3182.9127   -2775.5683   -85.596116    11996.297 
   34900    283.83579    205.82439   -3194.1464   -2771.9622   -467.25994    11995.448 
   34950    300.23812    206.36553   -3212.1843   -2765.6029   -1008.1931    11994.082 
   35000    282.76981    205.87076   -3195.6919   -2775.0933   -522.88127    11991.949 
   35050    290.05473    206.15983   -3205.3277   -2773.8932   -700.99768    11989.222 
   35100    290.19536    206.26755   -3208.9182   -2777.2746   -755.17755    11985.877 
   35150    283.60753    206.04655   -3201.5517    -2779.707   -478.62154    11981.857 
   35200     274.0415    205.69382   -3189.7939   -2782.1779   -101.52084     11977.31 
   35250    277.23929    205.84068   -3194.6892   -2782.3168   -183.98993     11972.41 
   35300    277.03945    205.86385   -3195.4615   -2783.3863   -193.97244    11967.147 
   35350    286.78933    206.19248   -3206.4161   -2779.8387   -479.87152    11961.485 
   35400    292.04041    206.35833   -3211.9443   -2777.5563   -562.74331    11955.302 
   35450    288.72695    206.23187   -3207.7289   -2778.2695   -284.54823    11948.546 
   35500    281.55571    206.09071   -3203.0236   -2784.2309   -7.8526484    11941.362 
   35550    293.68341    206.47628   -3215.8759    -2779.044   -271.05842    11933.864 
   35600    291.21566    206.42915   -3214.3049   -2781.1437   -113.36548    11925.953 
   35650    300.22257    206.65875   -3221.9583      -2775.4   -237.79452    11917.652 
   35700    281.09679    206.07064   -3202.3548   -2784.2446    314.73129    11908.986 
   35750    277.58933    205.94672   -3198.2242   -2785.3311    526.43403    11900.176 
   35800    284.23232    206.12696   -3204.2321    -2781.458    480.34471    11891.344 
   35850     300.6109    206.65713   -3221.9043   -2774.7684    134.83505    11882.441 
   35900    287.06655     206.2443   -3208.1434   -2781.1536    625.05834    11873.363 
   35950    297.54516    206.52787   -3217.5956   -2775.0197    513.41687    11864.283 
   36000    291.44996    206.40501   -3213.5003   -2779.9905     781.6033    11855.207 
   36050    294.97524    201.53428   -3217.8095   -2779.0562    783.45833    11846.226 
   36100    304.48985    201.76489   -3225.4962   -2772.5906    673.19104     11837.34 
   36150    310.36586    202.00981   -3233.6604   -2772.0147    621.93429    11828.488 
   36200    294.38538    201.55253   -3218.4176   -2780.5416    1076.0796     11819.68 
   36250     300.0386    201.61688   -3220.5626   -2774.2779    1114.1328    11811.096 
   36300     299.7118    201.63592   -3221.1974   -2775.3988    1248.2649    11802.798 
   36350       309.34    201.99789   -3233.2629   -2773.1431    1100.6391    11794.805 
   36400    304.44066    201.90153   -3230.0511   -2777.2187    1253.5758    11787.082 
   36450    299.40053    201.67141   -3222.3802   -2777.0446     1514.846    11779.686 
   36500    304.44284    201.79074    -3226.358   -2773.5223    1516.1267    11772.752 
   36550     314.8468    202.05321   -3235.1071   -2766.7964    1371.0671    11766.277 
   36600    296.65926    201.66755   -3222.2517   -2780.9935    1897.3269    11760.223 
   36650    302.22042    201.76567   -3225.5224   -2775.9924    1862.7938    11754.805 
   36700    307.41767    201.92864   -3230.9547   -2773.6943    1795.1103    11750.037 
   36750    314.92628    202.06472   -3235.4905   -2767.0615    1715.1443    11745.861 
   36800    306.61783    201.84566   -3228.1885   -2772.1177     1925.214     11742.27 
   36850    315.11262     202.0861   -3236.2034   -2767.4973    1749.6904    11739.325 
   36900    297.16577    201.59356   -3219.7853   -2777.7738    2240.8266    11736.992 
   36950     307.0969    201.88676   -3229.5588   -2772.7754    2020.1454    11735.452 
   37000    306.58708    201.87624   -3229.2081    -2773.183    2064.5077    11734.659 
   37050     317.7267    197.14987   -3238.3291   -2765.7347    1800.8972    11734.585 
   37100    304.41621    196.78046   -3226.0152   -2773.2192    1993.1125    11735.141 
   37150    317.04605    197.21644   -3240.5481   -2768.9662    1604.3489     11736.34 
   37200    305.73298    196.90145   -3230.0484   -2775.2938    1936.9915    11738.096 
   37250    305.95026    196.95383   -3231.7943   -2776.7165     1973.341     11740.51 
   37300     309.3006     197.0678   -3235.5934   -2775.5322    1797.0153     11743.62 
   37350    303.21851    196.85116   -3228.3719   -2777.3574    1783.6566    11747.364 
   37400    317.03334    197.29027   -3243.0092   -2771.4461     1337.351    11751.665 
   37450    298.81296    196.72905   -3224.3017   -2779.8401    1697.9206    11756.398 
   37500     297.1597    196.77608   -3225.8695    -2783.867    1622.4468    11761.681 
   37550    306.55536    197.05983   -3235.3275   -2779.3497    1325.5786    11767.501 
   37600    299.07419      196.846      -3228.2   -2783.3498    1466.9223    11773.743 
   37650     325.9932    197.55865   -3251.9552    -2767.065    692.01967    11780.392 
   37700    325.12709    197.50312   -3250.1039    -2766.502    530.96299    11787.132 
   37750    310.47681    197.15363   -3238.4543   -2776.6436    802.08058    11793.844 
   37800    289.47898    196.60036   -3220.0121   -2789.4341    1153.0307    11800.696 
   37850    285.56193    196.59366   -3219.7885   -2795.0368    1128.5476    11807.838 
   37900    286.17598    196.62691   -3220.8971    -2795.232     1063.868    11815.296 
   37950    299.40518    196.97675   -3232.5582   -2787.2157    640.25461    11823.013 
   38000    298.12035    196.89346   -3229.7821   -2786.3507      539.808    11830.801 
   38050    296.90921    196.88705   -3229.5683   -2787.9383    446.79139    11838.595 
   38100    289.30112    196.71228   -3223.7427   -2793.4292    524.36204    11846.353 
   38150    297.68689    196.96521   -3232.1736   -2789.3869     167.0795    11854.075 
   38200    290.93604    196.78586   -3226.1952   -2793.4499    230.64589    11861.644 
   38250    302.93653    197.07657   -3235.8856   -2785.2905   -36.248303    11869.021 
   38300    294.78837    196.75437   -3225.1458   -2786.6704    211.07769    11876.119 
   38350    287.81581     196.6163   -3220.5434   -2792.4392    179.49792    11883.017 
   38400    295.97924     196.9753     -3232.51   -2792.2634   -230.04871    11889.694 
   38450    283.16415    196.59699   -3219.8996   -2798.7144   -10.306597    11896.019 
   38500    287.23352    196.77423   -3225.8075   -2798.5694    -272.0174     11902.04 
   38550    291.42786    196.85518    -3228.506   -2795.0291   -474.66687    11907.646 
   38600    291.29376    196.86794   -3228.9312   -2795.6538   -551.68908    11912.725 
   38650    288.25057    196.79878   -3226.6259    -2797.875   -566.37378    11917.242 
   38700    289.20321    196.84198    -3228.066   -2797.8981    -649.2662     11921.18 
   38750     280.1483    196.58356    -3219.452   -2802.7526   -483.02947    11924.509 
   38800    281.52204    196.62873   -3220.9576   -2802.2149   -590.31621     11927.29 
   38850    288.71133    196.72848   -3224.2827   -2794.8464   -744.66545    11929.471 
   38900    273.58917    196.41553   -3213.8509   -2806.9078   -325.91912    11930.995 
   38950    273.28561    196.36349   -3212.1164   -2805.6248   -309.81563    11932.053 
   39000    293.80504    197.06449   -3235.4829   -2798.4702   -929.82018    11932.633 
   39050     282.7258    196.69808   -3223.2693   -2802.7361   -617.16642    11932.485 
   39100     283.2309    196.65786   -3221.9287   -2800.6442   -515.09252    11931.702 
   39150     283.2554    196.61731   -3220.5769    -2799.256    -454.7426    11930.359 
   39200     285.8711    196.70586   -3223.5286    -2798.317   -569.32611    11928.476 
   39250    276.98377    196.45566   -3215.1888   -2803.1964   -398.62868     11926.02 
   39300    296.36989    197.11288    -3237.096   -2796.2682   -947.86247    11923.008 
   39350    288.36063    196.82445   -3227.4816    -2798.567   -662.08841    11919.259 
   39400    273.45477    196.37889   -3212.6296   -2805.8863   -176.62156    11914.875 
   39450    270.11996     196.2509   -3208.3635   -2806.5805   -15.700448    11910.094 
   39500     284.8369    196.65952    -3221.984   -2798.3107   -305.47669    11904.995 
   39550    294.88353       196.93   -3231.0001   -2792.3832   -456.44584    11899.441 
   39600    283.52172    196.60855   -3220.2851    -2798.568   -60.194494    11893.373 
   39650    291.17945    196.72312   -3224.1039   -2790.9965   -59.224766    11886.957 
   39700    284.69734    196.50075   -3216.6916   -2793.2259    274.05367     11880.23 
   39750    276.79835    196.24026   -3208.0088   -2796.2923    589.65182    11873.341 
   39800    291.44164    196.63538   -3221.1794   -2787.6821    360.52632    11866.426 
   39850    295.85724    196.82934   -3227.6448   -2787.5796    364.65062    11859.422 
   39900    311.71897    197.22405   -3240.8015   -2777.1432    154.51544    11852.272 
   39950    281.56235    196.30905   -3210.3016   -2791.4989    1030.0768    11844.959 
   40000    302.73792    196.86806   -3228.9354   -2778.6357     613.4232    11837.804 
   40050    308.26205    197.01626   -3233.8755    -2775.359    630.96583    11830.691 
   40100    294.60351    196.44521   -3214.8403   -2776.6399    1206.5083    11823.617 
   40150    297.96573    196.58848   -3219.6159   -2776.4145    1247.2868    11816.818 
   40200    289.47554     196.2381   -3207.9367   -2777.3638    1613.1087    11810.385 
   40250    311.14689    196.85064   -3228.3548   -2765.5474    1140.2394    11804.433 
   40300    315.28515    196.90229   -3230.0762   -2761.1134    1114.8612    11798.769 
   40350    313.68216    196.76042   -3225.3472   -2758.7688    1300.3108    11793.356 
   40400    321.85004    196.98409   -3232.8029   -2754.0754    1270.9845    11788.287 
   40450    302.55233    196.42886   -3214.2955   -2764.2718    1859.0365    11783.565 
   40500    306.20578    196.47397    -3215.799   -2760.3411     1847.698    11779.428 
   40550     304.0602    196.43087   -3214.3624   -2762.0959    1872.0252     11775.95 
   40600    312.12495    196.66076   -3222.0255   -2757.7633    1746.4524    11773.102 
   40650    302.22228    196.21078    -3207.026   -2757.4933    2120.9185    11770.855 
   40700    329.96672    196.99773   -3233.2577   -2742.4573    1445.0374    11769.307 
   40750    328.62978    196.98571   -3232.8572   -2744.0453    1452.3276    11768.203 
   40800    306.97365    196.31371    -3210.457    -2753.857     2050.297    11767.535 
   40850    304.62316     196.3275   -3210.9166   -2757.8127    2065.0398    11767.562 
   40900    305.41804    196.44617   -3214.8724   -2760.5863    2030.6126    11768.339 
   40950    325.67321    196.95798   -3231.9327   -2747.5184     1520.539    11769.826 
   41000    330.01291    197.06669   -3235.5565   -2744.6873    1354.4881    11771.789 
   41050    309.84898    196.56521   -3218.8402   -2757.9633    1765.2673     11774.14 
   41100    313.34905    196.62861   -3220.9535   -2754.8705    1605.0206    11777.038 
   41150    320.27416    196.76328   -3225.4426   -2749.0591    1519.7729    11780.441 
   41200    299.90259     196.2959   -3209.8633   -2763.7809     1923.318    11784.351 
   41250     328.6657    197.05715   -3235.2383    -2746.373    1131.7929    11788.866 
   41300    311.18323      196.571   -3219.0333   -2756.1718    1553.3238    11793.713 
   41350    319.09092    196.81121   -3227.0404   -2752.4168     1250.128    11799.004 
   41400    313.57716    196.63713   -3221.2376   -2754.8154    1237.7267    11804.663 
   41450    310.87682    196.68575   -3222.8583   -2760.4526    1214.1773    11810.641 
   41500    308.29786     196.5618   -3218.7268   -2760.1571    1149.3867    11816.948 
   41550    301.72523    196.40904   -3213.6347   -2764.8413    1174.1885     11823.55 
   41600     307.9104    196.49565   -3216.5217   -2758.5283    1051.6291    11830.451 
   41650     298.3883    196.21888   -3207.2961   -2763.4662    1198.1893    11837.639 
   41700    315.03069    196.72231    -3224.077   -2755.4927    616.72711    11845.109 
   41750    308.49845    196.61695   -3220.5651    -2761.697    662.86431    11852.624 
   41800    299.51583    196.37788   -3212.5959   -2767.0888    801.29401    11860.195 
   41850     308.3232    196.56432   -3218.8107   -2760.2033    519.21162    11867.865 
   41900     296.9319    196.31079   -3210.3596   -2768.6959    688.31008    11875.534 
   41950    291.33095    196.18253   -3206.0844   -2772.7517    673.80304    11883.262 
   42000    304.42895    196.57153   -3219.0509   -2766.2359    226.88091    11891.026 
   42050    309.40111    201.68031   -3222.6769   -2762.4662   -78.874187     11898.63 
   42100    300.09656    201.46003   -3215.3343   -2768.9634    19.392164    11905.935 
   42150    301.05856    201.43317   -3214.4388   -2766.6371   -63.832255    11912.955 
   42200    294.82869    201.30502   -3210.1674   -2771.6321   -59.871036    11919.664 
   42250    285.79369    201.04445   -3201.4817   -2776.3852    156.11461    11926.073 
   42300    277.38348    200.83192   -3194.3974   -2781.8105    252.24663    11932.298 
   42350     289.7157    201.27134   -3209.0447   -2778.1145    -297.5235    11938.363 
   42400    289.90076    201.26259   -3208.7529   -2777.5475    -357.5702    11944.038 
   42450    294.99095    201.43493   -3214.4977    -2775.721   -540.11304     11949.25 
   42500    291.72562    201.41529    -3213.843   -2779.9232   -570.46363    11953.911 
   42550    288.09425    201.29649   -3209.8831   -2781.3647   -552.15526    11957.996 
   42600    299.12936    201.60413   -3220.1377   -2775.2055   -824.48224    11961.498 
   42650    274.48877    200.91794   -3197.2646   -2788.9834   -98.147177    11964.338 
   42700    268.53711    200.72526   -3190.8421   -2791.4135    27.256484    11966.826 
   42750       291.35    201.42436   -3214.1453   -2780.7843   -695.45822    11969.021 
   42800    290.16948    201.32152   -3210.7173   -2779.1122   -681.92829    11970.609 
   42850    285.97758    201.23033   -3207.6778   -2782.3079   -614.85708    11971.555 
   42900    282.93673    201.07307   -3202.4358   -2781.5889   -477.77439    11971.906 
   42950    284.46417    201.20434   -3206.8113   -2783.6924   -473.46642    11971.711 
   43000     282.9657    201.15219    -3205.073   -2784.1829   -434.64022    11971.005 
   43050    281.81686    201.06091   -3202.0303   -2782.8491   -354.83373    11969.793 
   43100    280.74927    200.94193   -3198.0644   -2780.4711   -234.79942    11968.117 
   43150    287.64012    201.33044   -3211.0148   -2783.1719   -475.25482    11966.014 
   43200    289.50999     201.3104   -3210.3468   -2779.7226   -408.89999    11963.398 
   43250    283.79844    201.07728   -3202.5759   -2780.4472   -154.99386    11960.295 
   43300    275.01338     200.8053   -3193.5099   -2784.4483     67.47583    11956.825 
   43350    279.69296    200.93577   -3197.8589   -2781.8368   0.07222855    11953.108 
   43400    295.75199    201.40294   -3213.4312   -2773.5226   -382.12975    11949.105 
   43450    308.78559    201.77843   -3225.9475   -2766.6523   -645.58954    11944.608 
   43500    291.57792     201.1488   -3204.9602   -2771.2601   -53.431991    11939.534 
   43550     290.1801     201.1021   -3203.4032   -2771.7823    53.594288    11934.103 
   43600    284.27695    200.90678   -3196.8927   -2774.0523    289.18281    11928.414 
   43650    278.50966    200.75172   -3191.7239   -2777.4619    516.04682    11922.593 
   43700    289.11886    200.99977   -3199.9924     -2769.95    323.18702    11916.733 
   43750    303.39547    201.39004   -3213.0014   -2761.7236   -25.116179    11910.743 
   43800    312.56626     201.6351     -3221.17   -2756.2514   -116.65126    11904.444 
   43850    301.46062    201.28907   -3209.6356   -2761.2358    404.71015    11897.827 
   43900    301.26247    201.24227   -3208.0758   -2759.9707    607.90517    11891.107 
   43950    290.69249    200.95623   -3198.5409   -2766.1578    982.46562    11884.406 
   44000    306.20941    201.41078   -3213.6926   -2758.2293    640.27023    11877.868 
[...]
   89400    306.86681    243.02082    -3100.694   -2644.2529   -347.04119    12270.446 
   89450    302.81097    242.81624   -3093.8745   -2643.4662   -17.887537    12264.116 
   89500     297.0239    242.65879   -3088.6262   -2646.8257    220.13636    12257.579 
   89550    304.73812    242.79141   -3093.0469    -2639.772    102.35767    12250.967 
   89600    298.23974    242.58533   -3086.1778   -2642.5688    355.74033    12244.233 
   89650    302.62043    242.82712   -3094.2374   -2644.1124    193.18621    12237.472 
   89700    303.61128    242.83374    -3094.458   -2642.8592     329.8135    12230.625 
   89750    296.64301    242.58791   -3086.2638   -2645.0298    659.27405    12223.768 
   89800    300.83923    242.77659   -3092.5531   -2645.0776    503.57783    12217.066 
   89850    307.14991    243.03562   -3101.1874   -2644.3252    374.55549    12210.448 
   89900    305.54978    243.01101   -3100.3668   -2645.8847    448.00707    12203.845 
   89950    302.18357    242.90067   -3096.6889   -2647.2137    565.39539    12197.295 
   90000     294.6006    242.62714   -3087.5713   -2649.3753    849.49536    12190.877 
   90050    300.54062    237.84613    -3094.871   -2647.8396    670.67715    12184.683 
   90100    306.09244    238.18005   -3106.0017   -2650.7124    401.15262    12178.657 
   90150    315.30431    238.52718   -3117.5727   -2648.5815    187.97484    12172.641 
   90200    293.25319    237.78501   -3092.8336   -2656.6417    1014.6158    12166.583 
   90250    282.84582    237.45537   -3081.8457    -2661.134    1356.2342     12160.85 
   90300    306.55081    238.24731   -3108.2436   -2652.2725    602.34583     12155.59 
   90350    310.16226     238.3946   -3113.1533   -2651.8105    408.19646    12150.489 
   90400    313.07901    238.57479   -3119.1596   -2653.4783     302.2868    12145.393 
   90450    310.68526    238.51814   -3117.2712   -2655.1505    448.24214    12140.258 
   90500    289.26277    237.72648   -3090.8825   -2660.6261    1187.3326    12135.204 
   90550     289.0057    237.84605   -3094.8683   -2664.9942    1202.0698    12130.546 
   90600    296.89881    238.19713   -3106.5709   -2664.9564     966.8651    12126.333 
   90650    302.62767    238.46797    -3115.599   -2665.4632    784.48298    12122.463 
   90700    294.93789    238.20612   -3106.8707   -2668.1729    995.28737    12118.855 
   90750    306.38996    238.60625   -3120.2082   -2664.4764    644.20698    12115.531 
   90800    295.08501    238.27522   -3109.1739   -2670.2573    968.87837     12112.41 
   90850    306.40575    238.80642   -3126.8807   -2671.1254    586.44161    12109.578 
   90900    302.05181    238.75685   -3125.2284   -2675.9492    688.82596    12106.895 
   90950    285.00733    238.13516   -3104.5053   -2680.5785     1239.608    12104.412 
   91000    294.59798    238.44256   -3114.7522     -2676.56    892.85022    12102.355 
   91050    296.98882    243.73001   -3124.3336   -2682.5852    616.06392    12100.608 
   91100    295.87029    243.78178   -3126.0593   -2685.9747    565.66167    12099.032 
   91150    301.45243    244.07886   -3135.9619   -2687.5743    450.28149    12097.582 
   91200    288.67797    243.57301   -3119.1004   -2689.7137    853.44297    12096.247 
   91250    302.82017    244.08363   -3136.1211    -2685.699    327.34851    12095.143 
   91300    286.17269    243.53509   -3117.8364   -2692.1762    805.32232    12094.115 
   91350    290.05871    243.67035   -3122.3451   -2690.9047    668.05063    12093.305 
   91400    286.97306    243.61403   -3120.4676   -2693.6169    740.56738    12092.691 
   91450    276.21567    243.23481   -3107.8271   -2696.9772    1072.5291    12092.333 
   91500    292.69531    243.90912    -3130.304   -2694.9419    543.02087     12092.36 
   91550    296.72437    244.13529    -3137.843    -2696.488    356.32437    12092.529 
   91600    287.18263    243.76826   -3125.6086   -2698.4462    516.99699    12092.747 
   91650    291.86493     243.9938   -3133.1266   -2698.9996     330.0721    12093.051 
   91700    291.77026    244.02394   -3134.1314   -2700.1453    402.26437    12093.398 
   91750    288.91609    243.87341   -3129.1138    -2699.373    628.30597    12093.798 
   91800    280.93303    243.56182   -3118.7272   -2700.8606    886.73566    12094.372 
   91850    279.61173     243.5317   -3117.7232    -2701.822    809.12503    12095.261 
   91900     287.2269    243.78654   -3126.2181   -2698.9898    491.17681    12096.419 
   91950    290.58758    243.90083   -3130.0278   -2697.8008    345.72391     12097.69 
   92000    291.32793    244.03673   -3134.5577   -2701.2295    294.87687    12098.992 
   92050    303.45499    244.37188   -3145.7294   -2694.3631   -82.521459    12100.273 
   92100    285.76537    243.83313    -3127.771   -2702.7166    365.64397    12101.406 
   92150    283.86016     243.6842   -3122.8068   -2700.5863    461.18935    12102.549 
   92200    275.91366    243.40439   -3113.4798   -2703.0792    800.32531    12103.809 
   92250     279.2219     243.5089   -3116.9632   -2701.6418    729.69469    12105.321 
   92300     289.5932    243.90927   -3130.3091   -2699.5611    308.69793    12107.049 
   92350    283.90737    243.80363   -3126.7876   -2704.4969    428.05414    12108.829 
   92400    286.09417    243.84308   -3128.1028   -2702.5594    459.66755    12110.674 
   92450    293.23636    243.97673   -3132.5575   -2696.3907    294.99292    12112.609 
   92500    297.25147    244.06198   -3135.3993   -2693.2603     120.5587    12114.549 
   92550    288.56158    243.77998   -3125.9994   -2696.7859     385.1389    12116.418 
   92600    277.10143    243.29879   -3109.9595   -2697.7922    804.82216    12118.349 
   92650    290.39596    243.82882   -3127.6274   -2695.6854    395.96519    12120.512 
   92700    294.83661    243.93639   -3131.2131    -2692.666    208.81391    12122.765 
   92750    298.51446    244.01396   -3133.7988   -2689.7812    12.626901    12124.964 
   92800     291.8997    243.70216   -3123.4053   -2689.2266    314.32911    12127.024 
   92850    275.27943    243.11543   -3103.8475   -2694.3902     960.8474    12129.114 
   92900    277.43448    243.21411   -3107.1368   -2694.4741     837.9272     12131.54 
   92950    295.72355    243.79977   -3126.6589   -2686.7925    191.94795    12134.237 
   93000    305.33765    244.05296   -3135.0985   -2680.9319   -128.76206    12136.895 
   93050    300.77333    243.91348   -3130.4495    -2683.072   -67.658194    12139.337 
   93100    293.95308    243.57253   -3119.0845   -2681.8515    245.22049      12141.6 
   93150    291.28424     243.3581   -3111.9368   -2678.6735     507.8781    12143.843 
   93200    280.82033    243.01994   -3100.6647   -2682.9657    849.73512    12146.205 
   93250    276.97547    242.88924   -3096.3079   -2684.3279    950.33834    12148.873 
   93300    309.32316    244.01597   -3133.8655   -2673.7708   -85.313793     12151.84 
   93350     303.6474    243.73651   -3124.5504   -2672.8979    53.937223    12154.686 
   93400    285.67403    243.02127   -3100.7091   -2675.7906    588.25493    12157.413 
   93450    296.92414    243.39658   -3113.2193   -2671.5672    219.24985    12160.263 
   93500    302.75349    243.54216   -3118.0721   -2667.7493    84.462601    12163.101 
   93550    301.25936    243.51681    -3117.227   -2669.1266    136.24332    12165.836 
   93600    305.69716     243.4985   -3116.6168   -2661.9154    62.470492    12168.494 
   93650    290.63527    242.83772   -3094.5906   -2662.2927    612.63412    12171.061 
   93700    300.18644    243.17596   -3105.8655   -2659.3609     291.5033    12173.753 
   93750    307.82115    243.43265   -3114.4217    -2656.561   -41.799559    12176.443 
   93800    301.49778    243.23994    -3107.998   -2659.5429    135.73637    12178.969 
   93850    292.03915     242.8618   -3095.3934   -2661.0073     482.3239    12181.414 
   93900    286.67754    242.62662    -3087.554   -2661.1429    681.14705    12183.963 
   93950    305.70484      243.212   -3107.0666   -2652.3539    93.197851    12186.693 
   94000    305.03904    243.22502   -3107.5005   -2653.7781    128.56957    12189.356 
   94050    285.07716    242.46169   -3082.0564   -2658.0258    794.64012    12191.976 
   94100    302.29141    243.07313   -3102.4377   -2652.8021    282.26406    12194.774 
   94150    296.15156     242.8653   -3095.5099   -2655.0069    464.83238    12197.614 
   94200    306.62719    243.21602   -3107.2007    -2651.116    166.07277    12200.514 
   94250     305.9317    243.18015   -3106.0051   -2650.9549     218.8213    12203.364 
   94300     287.9905    242.47352   -3082.4508   -2654.0867    747.36705    12206.219 
   94350    298.63103    242.81816   -3093.9386   -2649.7476    352.42685    12209.274 
   94400    293.59589    242.63649    -3087.883   -2651.1814    450.54608    12212.396 
   94450    303.69906    243.00553   -3100.1842   -2648.4549    95.196426    12215.585 
   94500    298.98128    242.80032   -3093.3441   -2648.6321     177.6111    12218.706 
   94550    294.34725    242.61542   -3087.1805   -2649.3613     353.7302    12221.761 
   94600    289.40665    242.50251   -3083.4171   -2652.9466    440.19226    12224.856 
   94650    290.75427    242.45369   -3081.7895   -2649.3146    303.19992    12228.043 
   94700    307.81099    242.96268   -3098.7559   -2640.9104   -214.26796    12231.195 
   94750    292.19042    242.38846   -3079.6153   -2645.0042    289.86178    12234.138 
   94800    298.84278    242.56699   -3085.5664   -2641.0604    98.308465    12237.045 
   94850    303.01986    242.75811    -3091.937   -2641.2179   -74.837362    12239.851 
   94900    293.68213    242.43531   -3081.1769    -2644.347    217.37592    12242.478 
   94950    287.26209     242.2421   -3074.7366    -2647.456    416.46676    12245.064 
   95000    296.40833    242.52559   -3084.1864   -2643.3015    108.23069    12247.699 
   95050    299.76409    242.62303   -3087.4342   -2641.5578   -65.252675    12250.243 
   95100    308.78735    242.90982   -3096.9941   -2637.6963   -292.42422    12252.588 
   95150    290.97204    242.24513   -3074.8378   -2642.0389    305.85517    12254.645 
   95200    296.88412    242.52029   -3084.0097    -2642.417    80.975022    12256.648 
   95250    302.39917    242.54245   -3084.7483   -2634.9524   -76.752298    12258.566 
   95300    309.16321    242.70957   -3090.3189    -2630.462   -227.72152    12260.253 
   95350    295.39681    242.34268   -3078.0895   -2638.7091    172.43991    12261.682 
   95400    303.26994    242.76869   -3092.2898   -2641.1987   -47.567679    12262.986 
   95450    288.18454    242.20497   -3073.4991   -2644.8464    359.99695    12264.155 
   95500    306.04592    242.76558   -3092.1858   -2636.9657   -166.67598    12265.284 
   95550     303.0423    242.65678   -3088.5594    -2637.807   -12.430292    12266.187 
   95600    301.97027    242.49655   -3083.2183   -2634.0604    69.998483    12266.915 
   95650    301.36969    242.46397   -3082.1323   -2633.8677   -30.982823    12267.516 
   95700     308.4048    242.71938   -3090.6459   -2631.9171   -314.88703    12267.903 
   95750    304.24203    242.63903   -3087.9675   -2635.4306   -186.20576    12267.964 
   95800    307.42256    242.74998   -3091.6661   -2634.3984   -141.50776    12267.734 
   95850    296.99811     242.4106   -3080.3532   -2638.5911    234.63518    12267.274 
   95900    303.89229    242.60545   -3086.8482   -2634.8314    5.0470935    12266.723 
   95950    299.97331    242.49328   -3083.1092   -2636.9216    136.54138    12266.028 
   96000    305.12719    242.58234   -3086.0781   -2632.2245    11.621464    12265.216 
   96050    310.16135    242.79051   -3093.0171   -2631.6756   -164.04321    12264.222 
   96100     296.8615    242.34219   -3078.0731   -2636.5141    207.83915    12262.997 
   96150    291.11576    242.10733   -3070.2444   -2637.2317    461.23207    12261.682 
   96200    289.52481    242.00876   -3066.9588   -2636.3126    572.06643    12260.432 
   96250    312.50834    242.85406   -3095.1352   -2630.3027   -229.48772    12259.263 
   96300    306.51587    242.61608   -3087.2026   -2631.2835   -23.684768    12257.849 
   96350    301.49451    242.42641   -3080.8805   -2632.4302    222.54268    12256.228 
   96400    299.00262    242.36758   -3078.9192   -2634.1754    317.60582    12254.547 
   96450    301.04415    242.44848    -3081.616   -2633.8356    294.92389    12252.844 
   96500    313.79732    242.97144   -3099.0479   -2632.2982     -120.968    12251.093 
   96550    304.99485    242.65137   -3088.3791   -2634.7224    133.64528    12249.121 
   96600    296.27426    242.31126   -3077.0419   -2636.3564    435.37605    12247.043 
   96650    308.15453    242.73376   -3091.1252   -2632.7687    127.74243    12244.982 
   96700     297.0843    242.35289   -3078.4295   -2636.5391    533.30873    12242.846 
   96750    294.22625    242.29934   -3076.6448   -2639.0055    668.03222    12240.806 
   96800    306.91456    242.67539   -3089.1795   -2632.6674    377.05491    12238.923 
   96850    308.93221    242.79357   -3093.1191   -2633.6059    267.73841    12237.086 
   96900    316.03889    243.02687   -3100.8957   -2630.8118    56.576724    12235.188 
   96950    311.83888    242.90599   -3096.8663   -2633.0296    244.11567    12233.144 
   97000    301.97778    242.60651   -3086.8837   -2637.7147     541.0714    12231.044 
   97050    304.54644    242.74082   -3091.3608    -2638.371    437.38676    12229.037 
   97100    293.34666      242.328   -3077.6001   -2641.2691    793.37352    12227.129 
   97150     303.1795    242.57955   -3085.9851   -2635.0286     511.2026    12225.415 
   97200    306.70988    242.71175   -3090.3915   -2634.1838    273.38191    12223.819 
   97250    314.69184    243.06361   -3102.1203   -2634.0401    -26.48395    12222.168 
   97300    309.16239    242.82823   -3094.2745   -2634.4189     147.7842    12220.341 
   97350    315.56564     243.0084     -3100.28      -2630.9    9.8668703    12218.393 
   97400    307.30864    242.79803   -3093.2676   -2636.1693    351.34153    12216.283 
   97450    304.01006    242.68365   -3089.4549    -2637.263    553.83579    12214.171 
   97500    292.28433    242.32362   -3077.4539   -2642.7031    920.47749    12212.186 
   97550    291.37014    242.32259   -3077.4197   -2644.0287    913.16476    12210.496 
   97600    300.43187    242.84199   -3094.7331   -2647.8635    486.51439    12209.108 
   97650    297.65408     242.7172   -3090.5732   -2647.8353    604.31732    12207.824 
   97700    288.86514    242.43922   -3081.3074   -2651.6424    966.28386    12206.709 
   97750    303.63062    242.95436   -3098.4788   -2646.8512     503.1606     12205.91 
   97800    298.43387     242.7247   -3090.8235   -2646.9257    539.18023     12205.25 
   97850    310.48911    243.20423   -3106.8078   -2644.9788    97.509015    12204.668 
   97900    293.60175    242.69242   -3089.7473    -2653.037    542.37591    12204.027 
   97950    292.83203     242.7742   -3092.4732   -2656.9078    536.23037    12203.464 
   98000    289.76927    242.70135   -3090.0449   -2659.0351    558.47357    12203.038 
   98050     303.6593    238.11232   -3103.7439   -2652.0737    112.85509    12202.709 
   98100    305.80505    238.18526   -3106.1752   -2651.3134    -10.78342    12202.267 
   98150    299.65699     238.0677   -3102.2568   -2656.5398    118.62184    12201.637 
   98200    287.76987    237.70162   -3090.0539    -2662.018    398.83829    12200.902 
   98250    281.90035    237.56438   -3085.4794    -2666.174    495.85854     12200.19 
   98300    287.74866    237.83028   -3094.3427   -2666.3383    355.21102    12199.547 
   98350     281.2022    237.70604   -3090.2014   -2671.9345    551.86886    12198.941 
   98400     300.0507    238.37163   -3112.3875   -2666.0848      -81.681    12198.401 
   98450    302.75375    238.52206   -3117.4019   -2667.0786   -264.50673     12197.66 
   98500    286.30764    237.94856   -3098.2854   -2672.4245     226.2403    12196.625 
   98550    291.05093    238.21272   -3107.0907   -2674.1745    44.107073    12195.489 
   98600    288.12524    238.12455   -3104.1516   -2675.5872    126.39259    12194.207 
   98650    285.23348    238.05036   -3101.6785   -2677.4153    186.90898    12192.793 
   98700    281.70347     237.9655   -3098.8501   -2679.8376    208.02464    12191.303 
   98750    296.33796    238.41531   -3113.8436   -2673.0633   -203.83638    12189.711 
   98800     293.4302    238.40026    -3113.342   -2676.8868   -182.80059    12187.845 
   98850     303.3118    238.75978   -3125.3259   -2674.1726   -425.20522    12185.652 
   98900    290.56938    238.36335   -3112.1118   -2679.9119    33.175364    12183.066 
   98950    296.27638    238.60738   -3120.2459   -2679.5572   -150.44773    12180.262 
   99000    293.98229    238.59079    -3119.693   -2682.4166   -90.352485    12177.195 
   99050    295.17261    238.59802   -3119.9341   -2680.8872   -17.107582    12173.862 
   99100    284.38266     238.1628   -3105.4268   -2682.4292    370.04697    12170.343 
   99150     290.6868    238.45366   -3115.1219   -2682.7473    139.85429    12166.774 
   99200    289.49814    238.46503    -3115.501   -2684.8945    100.50855    12163.102 
   99250    300.78251    238.86324   -3128.7747   -2681.3835   -223.10034    12159.261 
   99300    286.60852    238.41225   -3113.7418   -2687.4333    206.07764    12155.145 
   99350    291.92684    238.55991   -3118.6636   -2684.4446    105.99981      12150.9 
   99400    292.01925    238.60794   -3120.2645    -2685.908    195.52126    12146.513 
   99450    286.96473    238.36847   -3112.2824   -2685.4441    483.93905    12142.038 
   99500    300.60577     238.8897   -3129.6566   -2682.5283    21.034123     12137.57 
   99550    290.60068    238.51232   -3117.0774   -2684.8309    378.07773    12132.944 
   99600     266.3233    237.67049   -3089.0164   -2692.8806    1275.0972    12128.343 
   99650    292.68648    238.61706   -3120.5687   -2685.2197    477.19868    12124.148 
   99700    310.38184    239.09257   -3136.4191   -2674.7496   -20.869421    12120.033 
   99750    298.79515    238.72571   -3124.1904   -2679.7553    470.38502    12115.735 
   99800    292.53715    238.54782   -3118.2606   -2683.1337    724.21377    12111.466 
   99850    281.75045    238.18378   -3106.1259   -2687.0434    1049.3276    12107.398 
   99900    292.34164    238.59465   -3119.8216   -2684.9856    776.28777    12103.651 
   99950    297.20846    238.72192   -3124.0641    -2681.989    654.03614    12100.134 
  100000    312.37218    239.19525   -3139.8416   -2675.2116     269.9936    12096.737 
Loop time of 27.3219 on 1 procs for 100000 steps with 500 atoms

Performance: 316.230 ns/day, 0.076 hours/ns, 3660.071 timesteps/s
99.8% CPU use with 1 MPI tasks x 1 OpenMP threads

MPI task timing breakdown:
Section |  min time  |  avg time  |  max time  |%varavg| %total
---------------------------------------------------------------
Pair    | 22.137     | 22.137     | 22.137     |   0.0 | 81.02
Bond    | 0.0070038  | 0.0070038  | 0.0070038  |   0.0 |  0.03
Neigh   | 0.50083    | 0.50083    | 0.50083    |   0.0 |  1.83
Comm    | 0.79264    | 0.79264    | 0.79264    |   0.0 |  2.90
Output  | 0.018265   | 0.018265   | 0.018265   |   0.0 |  0.07
Modify  | 2.7385     | 2.7385     | 2.7385     |   0.0 | 10.02
Other   |            | 1.128      |            |       |  4.13

Nlocal:    500 ave 500 max 500 min
Histogram: 1 0 0 0 0 0 0 0 0 0
Nghost:    1587 ave 1587 max 1587 min
Histogram: 1 0 0 0 0 0 0 0 0 0
Neighs:    14542 ave 14542 max 14542 min
Histogram: 1 0 0 0 0 0 0 0 0 0

Total # of neighbors = 14542
Ave neighs/atom = 29.084
Ave special neighs/atom = 0
Neighbor list builds = 605
Dangerous builds = 0

write_data      ${walker}/final_restart_file
write_data      1/final_restart_file

quit
