LAMMPS (19 May 2017)
Processor partition = 11
  using 1 OpenMP thread(s) per MPI task
# gREM variables
variable        lambda world 1000 1005 1010 1015 1020 1025 1030 1035 1040 1045 1050 1055 1060 1065 1070 1075
variable        walker world 0 1 2 3 4 5 6 7 8 9 10 11 12 13 14 15
variable        replica world 1 0 3 9 12 2 5 13 10 4 7 14 6 15 8 11

variable        T0 equal 300.0
variable        press equal 0.0

units           real
atom_style      full
pair_style      lj/cut 5.0

# LJ particles
read_data       ${walker}/restart_file
read_data       11/restart_file
  orthogonal box = (0.952108 0.952108 0.952108) to (24.0479 24.0479 24.0479)
  1 by 1 by 1 MPI processor grid
  reading atoms ...
  500 atoms
  reading velocities ...
  500 velocities
  0 = max # of 1-2 neighbors
  0 = max # of 1-3 neighbors
  0 = max # of 1-4 neighbors
  1 = max # of special neighbors

#dump            dump all xyz 1000 ${walker}/dump.xyz

fix             fxnpt all npt temp ${T0} ${T0} 1000.0 iso ${press} ${press} 10000.0
fix             fxnpt all npt temp 300 ${T0} 1000.0 iso ${press} ${press} 10000.0
fix             fxnpt all npt temp 300 300 1000.0 iso ${press} ${press} 10000.0
fix             fxnpt all npt temp 300 300 1000.0 iso 0 ${press} 10000.0
fix             fxnpt all npt temp 300 300 1000.0 iso 0 0 10000.0
fix             fxgREM all grem ${lambda} -.03 -30000 fxnpt
fix             fxgREM all grem 1055 -.03 -30000 fxnpt
thermo_modify   press fxgREM_press

thermo          50
thermo_style    custom step temp f_fxgREM pe etotal press vol
WARNING: New thermo_style command, previous thermo_modify settings will be lost (../output.cpp:705)
timestep        1.0

temper/grem     100000 1000 ${lambda} fxgREM fxnpt 10294 98392 ${walker}
temper/grem     100000 1000 1055 fxgREM fxnpt 10294 98392 ${walker}
temper/grem     100000 1000 1055 fxgREM fxnpt 10294 98392 11
Neighbor list info ...
  update every 1 steps, delay 10 steps, check yes
  max neighbors/atom: 2000, page size: 100000
  master list distance cutoff = 7
  ghost atom cutoff = 7
  binsize = 3.5, bins = 7 7 7
  1 neighbor lists, perpetual/occasional/extra = 1 0 0
  (1) pair lj/cut, perpetual
      attributes: half, newton on
      pair build: half/bin/newton
      stencil: half/bin/3d/newton
      bin: standard
Per MPI rank memory allocation (min/avg/max) = 5.724 | 5.724 | 5.724 Mbytes
Step Temp f_fxgREM PotEng TotEng Press Volume 
       0    300.25907    245.97889   -3032.6298   -2586.0172    1297.6503    12319.642 
      50    303.33274    246.00523   -3033.5077   -2582.3233    1235.3069    12319.898 
     100    313.93408    246.32776   -3044.2587   -2577.3056    905.90855    12320.657 
     150    312.84673     246.3076   -3043.5868    -2578.251    921.43776    12321.781 
     200    294.69863    245.69692   -3023.2306   -2584.8887    1518.4232    12323.282 
     250    322.81249    246.65812   -3055.2706   -2575.1115    600.00152     12325.36 
     300    318.32841    246.52334    -3050.778   -2577.2886     574.9178    12327.666 
     350     308.2916    246.17302   -3039.1008   -2580.5404    858.91845    12330.126 
     400    306.21054     246.0925   -3036.4167   -2580.9517    902.66592    12332.901 
     450    327.31528    246.88002   -3062.6672   -2575.8106    195.20136    12335.957 
     500    319.38067    246.56421   -3052.1404   -2577.0859    369.18352    12339.011 
     550    326.16171    246.88404   -3062.8015   -2577.6607    73.940051    12342.053 
     600    323.56297    246.84918   -3061.6394    -2580.364    108.00013    12344.994 
     650    302.14717    246.07744   -3035.9148   -2586.4938    800.49658    12347.885 
     700    314.21841    246.54667   -3051.5557   -2584.1796    340.09581    12350.976 
     750    313.13113    246.50606   -3050.2019    -2584.443    226.80896    12354.121 
     800     299.8892    245.96292   -3032.0973   -2586.0349    545.51609    12357.258 
     850     305.6035    246.30781   -3043.5938   -2589.0317    169.29166     12360.49 
     900    318.68578    246.80777    -3060.259   -2586.2381   -366.43994    12363.647 
     950    317.38278    246.80091   -3060.0303   -2587.9475   -459.19051    12366.447 
    1000    310.94138    246.64735   -3054.9117     -2592.41   -334.31567     12368.83 
    1050     304.5136    246.47669    -3049.223   -2596.2821   -135.99849     12370.86 
    1100     297.9648    246.32394   -3044.1312   -2600.9312    98.524232    12372.651 
    1150    283.92678    245.75665   -3025.2216    -2602.902    619.89041    12374.372 
    1200    288.17994    245.98056   -3032.6852   -2604.0394    447.58735    12376.231 
    1250    301.73816    246.59427   -3053.1424   -2604.3297   -223.18646    12378.166 
    1300    303.12035    246.67954   -3055.9846    -2605.116    -396.7323    12379.834 
    1350    302.33008    246.66269    -3055.423   -2605.7299   -322.34214     12381.13 
    1400    295.37079     246.4818   -3049.3934   -2610.0517    -33.03162    12382.101 
    1450    287.84191    246.25186   -3041.7285   -2613.5855    186.98576    12382.878 
    1500    295.29456    246.55938   -3051.9792    -2612.751   -104.69172    12383.577 
    1550    290.26179    246.38607   -3046.2023   -2614.4599   -9.4660104    12384.097 
    1600    306.56519    246.90637   -3063.5457   -2607.5532    -580.3983    12384.396 
    1650    296.20786    246.65601   -3055.2005   -2614.6137   -432.86977    12384.259 
    1700     299.0244    246.76072   -3058.6905   -2613.9144   -509.19443    12383.692 
    1750    294.29053    246.61774   -3053.9247   -2616.1899   -266.64476    12382.695 
    1800    290.31363    246.51533   -3050.5111   -2618.6916   -70.701599    12381.382 
    1850    288.60719    246.46082    -3048.694   -2619.4127   -34.150524    12379.874 
    1900    302.16094    246.97987   -3065.9955    -2616.554   -483.10038    12378.157 
    1950     299.1337     246.8739   -3062.4632   -2617.5245   -455.92864    12376.044 
    2000    304.11558    247.03808   -3067.9359    -2615.587   -643.66553    12373.492 
    2050    305.08208    242.20348   -3073.4495    -2619.663   -693.03667    12370.421 
    2100    306.78109    242.21454   -3073.8181   -2617.5045   -635.46631    12366.789 
    2150     297.4614    241.98242   -3066.0807   -2623.6294    -319.2281    12362.626 
    2200    292.41101    241.76405   -3058.8016   -2623.8624    -161.8848      12358.1 
    2250    305.29782    242.15831   -3071.9435   -2617.8361   -538.12115    12353.279 
    2300    301.62037    242.01265   -3067.0883   -2618.4508   -299.04397    12348.004 
    2350    297.53263    241.95739   -3065.2464   -2622.6892   -106.90228    12342.366 
    2400     299.1672     242.0245   -3067.4833   -2622.4947   -110.93279    12336.488 
    2450    294.14843    241.91794   -3063.9313   -2626.4078    93.451866    12330.383 
    2500    296.16183      241.972   -3065.7335   -2625.2152    23.701201     12324.15 
    2550    314.31643     242.6051   -3086.8366   -2619.3147   -633.76103    12317.709 
    2600    295.40122     241.9871   -3066.2367   -2626.8498   -83.787389    12310.804 
    2650    281.61873    241.37002   -3045.6673   -2626.7808    566.18032    12303.684 
    2700    289.02948    241.70394    -3056.798   -2626.8886    415.53058    12296.679 
    2750    311.03803    242.48551   -3082.8502   -2620.2047   -269.51745    12289.694 
    2800    311.50893    242.60866   -3086.9555   -2623.6096    -244.7321    12282.415 
    2850    304.46915    242.40292   -3080.0974   -2627.2226    135.03745     12274.84 
    2900    308.93697    242.60065   -3086.6884   -2627.1681    107.04715    12267.137 
    2950    300.14216    242.29753   -3076.5844   -2630.1456    475.46637    12259.339 
    3000    297.50285    242.19863   -3073.2875   -2630.7746    672.78751    12251.618 
    3050    303.79549    247.33557   -3077.8525   -2625.9797    523.79611    12244.085 
    3100    293.53377    246.92271   -3064.0904   -2627.4812    980.51453    12236.727 
    3150    297.83538    247.09107   -3069.7023   -2626.6947    930.24696    12229.709 
    3200    299.37304    247.22428   -3074.1427    -2628.848    901.32883    12223.053 
    3250    315.50712    247.79758   -3093.2527   -2623.9598     475.1567    12216.709 
    3300    295.69978    247.04573   -3068.1909   -2628.3599     1111.761    12210.536 
    3350    296.61067    247.11026   -3070.3419    -2629.156    1184.8565    12204.762 
    3400    302.44481    247.34346   -3078.1152   -2628.2515    1094.1663    12199.483 
    3450    310.09609    247.75162   -3091.7206   -2630.4761    785.67916    12194.635 
    3500    301.70733    247.42477   -3080.8256   -2632.0588    935.37229    12190.085 
    3550    312.84115    247.85766   -3095.2553   -2629.9278    570.43015    12185.843 
    3600    304.15758    247.45203   -3081.7345   -2629.3231    958.64674     12181.81 
    3650    298.67113    247.34608   -3078.2027   -2633.9521    1235.9866    12178.126 
    3700    299.95316    247.39808   -3079.9361   -2633.7786    1169.3802    12174.942 
    3750    308.61525    247.74261   -3091.4203   -2632.3785     857.1542    12172.229 
    3800    299.86252    247.39568    -3079.856   -2633.8333    1126.0302    12169.871 
    3850    323.36488    248.32198   -3110.7326   -2629.7518    421.75875    12167.893 
    3900    305.50238    247.66378   -3088.7925   -2634.3809     1034.754    12166.062 
    3950    299.52719    247.54358    -3084.786    -2639.262    1254.6185    12164.589 
    4000    294.24369    247.27107   -3075.7022    -2638.037    1521.8624    12163.666 
    4050    309.45481     242.7932   -3093.1068   -2632.8162    1085.3375    12163.356 
    4100    308.17545    242.78226   -3092.7421   -2634.3545    1016.7148    12163.473 
    4150    306.95946    242.77939   -3092.6464   -2636.0674    961.97885    12163.959 
    4200    316.17473    243.07287    -3102.429   -2632.1431    633.92158    12164.775 
    4250    314.18354    243.04025   -3101.3418   -2634.0176    715.39727    12165.768 
    4300    307.87238    242.89811   -3096.6037   -2638.6669    860.11248    12166.966 
    4350    312.17308       243.15   -3105.0001   -2640.6663    630.60724     12168.43 
    4400    308.41795     242.9635   -3098.7833    -2640.035    734.60519    12170.083 
    4450    305.16657    242.74595   -3091.5317   -2637.6195    831.73747    12171.973 
    4500    298.40128    242.60919   -3086.9729   -2643.1236    889.91446    12174.124 
    4550    290.04711    242.40658   -3080.2192   -2648.7961    1040.0889    12176.586 
    4600    296.45967    242.72476   -3090.8254   -2649.8641    764.28344    12179.421 
    4650     299.5554    242.80932   -3093.6441   -2648.0781    585.10664    12182.511 
    4700    307.17065     243.1023   -3103.4099   -2646.5168    201.96325    12185.731 
    4750    300.49356     242.9595   -3098.6501   -2651.6887    370.98437    12188.913 
    4800    289.44463    242.62318   -3087.4392   -2656.9122    707.67768     12192.15 
    4850    309.95416     243.4233   -3114.1099   -2653.0765   -32.895707    12195.551 
    4900    296.60858    242.98188    -3099.396   -2658.2132     262.2872    12198.829 
    4950    291.68209    242.85587   -3095.1956   -2661.3406     402.2816    12202.055 
    5000    287.93343    242.83031   -3094.3438   -2666.0646    527.11934    12205.348 
    5050    292.73894    242.96992   -3098.9973   -2663.5703    347.69337    12208.756 
    5100    314.35623    243.81394   -3127.1313   -2659.5502   -441.42467    12212.144 
    5150    288.09736    242.81565    -3093.855    -2665.332    308.60598    12215.226 
    5200    281.98673    242.66549   -3088.8495   -2669.4156    447.61758    12218.272 
    5250    288.88106    242.76548   -3092.1826   -2662.4939    268.16677    12221.389 
    5300    287.63814    242.81793    -3093.931    -2666.091     177.0137    12224.486 
    5350    292.08932     243.0301   -3101.0032   -2666.5425   -187.02653    12227.502 
    5400    290.14574    242.96213   -3098.7375   -2667.1677   -196.80891    12230.274 
    5450    278.43226    242.58185   -3086.0617   -2671.9148    177.45766    12232.796 
    5500    278.63736    242.59614   -3086.5381   -2672.0861    148.60027     12235.24 
    5550    291.83842    243.04138   -3101.3792   -2667.2917   -251.33673    12237.578 
    5600    282.92769    242.78784    -3092.928   -2672.0945   -59.478763    12239.669 
    5650    284.15427    242.93688   -3097.8959   -2675.2379   -204.10102    12241.547 
    5700    287.01847     243.0829   -3102.7633   -2675.8451   -420.99912    12243.157 
    5750    287.86426    243.03911   -3101.3037   -2673.1275    -461.0904     12244.39 
    5800    280.32759    242.84395   -3094.7985   -2677.8324   -182.87408    12245.231 
    5850    286.91822    243.12075   -3104.0249   -2677.2558   -455.27715     12245.78 
    5900    294.86721    243.42127   -3114.0422   -2675.4496   -829.52686    12245.901 
    5950    288.43391    243.15292   -3105.0974   -2676.0738   -586.25203    12245.443 
    6000     283.2621    242.86573   -3095.5242   -2674.1933   -318.46225    12244.491 
    6050    289.55268    238.09198   -3103.0661   -2672.3784   -470.05655    12243.178 
    6100    294.24651    238.22885   -3107.6282   -2669.9588   -502.02791    12241.426 
    6150    272.77306     237.4461   -3081.5366   -2675.8073    218.52875    12239.254 
    6200    289.65279    238.06392   -3102.1307   -2671.2941   -290.52088    12236.942 
    6250    289.53933    238.01948   -3100.6492   -2669.9814   -236.52652    12234.327 
    6300    283.28973    237.82724   -3094.2414   -2672.8694    8.3385858    12231.404 
    6350    292.01196    238.18635   -3106.2117   -2671.8661   -268.28212    12228.263 
    6400    294.21768    238.26606   -3108.8686   -2671.2421   -343.89204    12224.813 
    6450      302.176    238.44675   -3114.8918   -2665.4279   -489.01932    12220.982 
    6500    282.43432    237.74892   -3091.6308   -2671.5311    291.37183    12216.737 
    6550    280.93166    237.70678   -3090.2259   -2672.3614    433.30073    12212.424 
    6600     291.1221    238.09526   -3103.1753   -2670.1532    117.02405    12208.134 
    6650    289.56245    237.99544    -3099.848   -2669.1458    232.89985    12203.761 
    6700    298.84502    238.25077    -3108.359   -2663.8497    39.916812    12199.304 
    6750    304.79475    238.51892   -3117.2973   -2663.9382   -117.31722    12194.678 
    6800    299.45972     238.2225   -3107.4166    -2661.993    165.81609    12189.819 
    6850    291.95607    237.90547   -3096.8489   -2662.5863    567.49962    12184.861 
    6900    298.20101    238.11427    -3103.809   -2660.2576    525.25738    12179.992 
    6950    284.06241    237.61366   -3087.1218   -2664.6005    996.64814    12175.254 
    7000    298.14082    238.09924   -3103.3081   -2659.8462    514.95694    12170.805 
    7050    302.04404    233.18796   -3106.2654   -2656.9978    365.67627    12166.467 
    7100    312.39052     233.6487   -3121.6233   -2656.9661    111.41862    12162.111 
    7150    305.79029    233.43324   -3114.4414   -2659.6015      373.315    12157.653 
    7200    307.68265    233.44898    -3114.966   -2657.3114     411.3331    12153.159 
    7250    300.01383    233.18271   -3106.0903   -2659.8424    761.13466    12148.694 
    7300    292.56284    232.88138    -3096.046   -2660.8809    1107.4468     12144.46 
    7350    310.21752    233.48719   -3116.2395   -2654.8145    578.73356    12140.568 
    7400    314.38938    233.55768   -3118.5894    -2650.959    481.50735    12136.797 
    7450    315.99844    233.70841   -3123.6137   -2653.5899     475.9478    12133.064 
    7500    310.70964    233.48841   -3116.2802   -2654.1231    759.72917    12129.389 
    7550    300.43985    233.09268   -3103.0892   -2656.2077    1143.8706    12125.928 
    7600    304.46441    233.25209   -3108.4029   -2655.5351    1020.5353    12122.855 
    7650    315.72518     233.6327     -3121.09   -2651.4727    696.65358    12120.104 
    7700    299.66193    233.11375   -3103.7915   -2658.0671    1174.5027    12117.576 
    7750     313.7741    233.63848   -3121.2827   -2654.5675    756.76229     12115.42 
    7800    309.40013    233.47984   -3115.9947   -2655.7855    896.60281    12113.494 
    7850    300.18778    233.24056   -3108.0185    -2661.512    1112.8916    12111.852 
    7900    304.11784    233.32707   -3110.9022     -2658.55    938.23881    12110.596 
    7950    316.00579    233.66725   -3122.2416   -2652.2069    671.03207    12109.629 
    8000    317.05501    233.69232   -3123.0774   -2651.4821     716.3695    12108.838 
    8050    300.59317    233.21361   -3107.1205   -2660.0109    1127.7418    12108.247 
    8100    306.30802    233.47719   -3115.9064   -2660.2965     813.7874    12108.011 
    8150    311.13438     233.5695   -3118.9832   -2656.1944    647.14723    12108.009 
    8200    303.53001    233.37325   -3112.4418   -2660.9639    890.04594    12108.169 
    8250    307.80427    233.51896   -3117.2985    -2659.463    803.30601    12108.587 
    8300    307.41377    233.49181   -3116.3936   -2659.1389    785.99339    12109.239 
    8350    316.50835    233.87077   -3129.0258   -2658.2436    448.95917    12110.092 
    8400    315.84792    233.77528   -3125.8428    -2656.043     475.3242    12111.007 
    8450    302.72546    233.27267   -3109.0889   -2658.8077    1042.1636    12111.995 
    8500    302.51283    233.39236   -3113.0786   -2663.1137    1114.1425    12113.317 
    8550    301.58112     233.4443     -3114.81   -2666.2309    1127.9887    12115.035 
    8600    286.00976    232.86168   -3095.3893   -2669.9715    1561.4485    12117.195 
    8650    294.48204    233.15446   -3105.1487    -2667.129    1249.7084    12119.957 
    8700    296.41499    233.26715   -3108.9049     -2668.01     1162.203    12123.213 
    8750    307.06508    233.61507   -3120.5024   -2663.7663    737.54592    12126.897 
    8800    313.79836    233.79275   -3126.4251   -2659.6739    374.02537    12130.785 
    8850    306.38988     233.5915   -3119.7166   -2663.9849    465.94185    12134.687 
    8900    291.21975    233.08235   -3102.7449   -2669.5776    794.08291    12138.663 
    8950    306.41145    233.63794   -3121.2645   -2665.5007    196.04357    12142.841 
    9000    306.84585    233.69378   -3123.1259    -2666.716    97.282545    12146.964 
    9050    291.04066    233.19431   -3106.4771   -2673.5762    473.63547    12150.965 
    9100     290.3342    233.20993   -3106.9976   -2675.1475    456.25474    12155.021 
    9150    288.78753    233.13937   -3104.6455    -2675.096    496.04713    12159.165 
    9200    291.58455     233.2494   -3108.3135   -2674.6036    420.15627    12163.388 
    9250    300.54423    233.63153    -3121.051   -2674.0142    77.745116    12167.644 
    9300     303.0785    233.71926   -3123.9755   -2673.1692   -116.29749    12171.778 
    9350    305.07635    233.66668   -3122.2225   -2668.4446   -187.86907    12175.658 
    9400    300.53396    233.58523   -3119.5076   -2672.4861   -100.69511    12179.249 
    9450     283.1522     233.0383   -3101.2766   -2680.1092     374.0837    12182.636 
    9500    294.44421    233.36965   -3112.3217   -2674.3583     6.329092     12185.99 
    9550    294.84061    233.37355   -3112.4516   -2673.8985   -37.059651    12189.172 
    9600    296.22043    233.52157   -3117.3857   -2676.7803   -118.38585    12192.136 
    9650    293.77696    233.35087   -3111.6955   -2674.7246   -61.369028    12194.862 
    9700    288.32083     233.1892   -3106.3066   -2677.4512     137.1926    12197.372 
    9750    289.79699    233.23876   -3107.9585   -2676.9075    89.138767    12199.754 
    9800    298.29989    233.54276   -3118.0919   -2674.3935   -255.90171    12201.974 
    9850    297.46043    233.54177   -3118.0589   -2675.6091   -353.88025     12203.87 
    9900     289.8683    233.26248   -3108.7495   -2677.5923   -188.70196    12205.397 
    9950    289.50164    233.19325   -3106.4418   -2675.8301   -213.98985    12206.623 
   10000    301.44937      233.661   -3122.0334   -2673.6503   -617.53217    12207.516 
   10050    287.00542    233.12547   -3104.1824   -2677.2836   -177.80113    12207.928 
   10100    281.00414    233.02365   -3100.7883   -2682.8159   -53.965463    12208.019 
   10150    293.67111    233.49568   -3116.5228   -2679.7093   -318.98129    12207.869 
   10200    281.72792    233.03703   -3101.2343   -2682.1853    158.64742    12207.404 
   10250    290.02781    233.40467   -3113.4891   -2682.0947   -143.98409    12206.771 
   10300      295.155    233.53427    -3117.809   -2678.7884    -371.1257    12205.878 
   10350     282.5963    233.05641   -3101.8804   -2681.5398    44.654396    12204.628 
   10400     297.9544    233.61602   -3120.5341   -2677.3495   -359.18896    12203.147 
   10450    292.56906     233.3791   -3112.6365   -2677.4622    -230.1519    12201.307 
   10500    299.92057    233.54814   -3118.2714   -2672.1623   -396.34868    12199.101 
   10550    294.18883    233.38455   -3112.8183   -2675.2347   -170.46006    12196.497 
   10600    283.78541    233.14411   -3104.8036   -2682.6943    237.66107    12193.597 
   10650    285.00036    233.10645   -3103.5484   -2679.6319    281.17519     12190.61 
   10700    301.33801    233.65758   -3121.9192   -2673.7018   -208.27408    12187.541 
   10750     290.6474    233.23728   -3107.9095   -2675.5935    213.21849    12184.207 
   10800    300.42257      233.573   -3119.1001   -2672.2443    50.921868    12180.734 
   10850    289.45138    233.18272   -3106.0905   -2675.5535    434.51392     12177.12 
   10900    294.72631    233.37786   -3112.5954   -2674.2123    296.19118    12173.488 
   10950    300.13006    233.50017   -3116.6723   -2670.2516    173.39263    12169.812 
   11000    289.78067    233.08599   -3102.8663   -2671.8396    625.37713    12166.044 
   11050    290.69775     233.0802   -3102.6734   -2670.2825    738.17202    12162.382 
   11100    294.70177      233.186      -3106.2   -2667.8534    525.18212     12158.91 
   11150    302.33356    233.37216   -3112.4052    -2662.707     280.3069    12155.497 
   11200    305.18476    233.56495   -3118.8316   -2664.8924    274.34656    12152.029 
   11250    293.75725    233.15104   -3105.0346    -2668.093    805.52689    12148.536 
   11300    290.70504    233.01503   -3100.5009   -2668.0992    1011.2123    12145.259 
   11350    301.51671     233.3569   -3111.8966   -2663.4133     746.0171    12142.287 
   11400    301.39581     233.2792   -3109.3066   -2661.0032    857.99699    12139.527 
   11450    309.09625    233.55493   -3118.4978   -2658.7405    717.65881    12137.008 
   11500    306.27497    233.47416   -3115.8054   -2660.2446    812.53782    12134.673 
   11550    307.92448    233.44752   -3114.9175   -2656.9032    851.56303    12132.554 
   11600    302.37532    233.12507   -3104.1689   -2654.4086    1112.8033    12130.688 
   11650    306.04924    233.28595   -3109.5315   -2654.3065     1011.322    12129.197 
   11700    321.67985    233.71646   -3123.8822   -2645.4078    572.28157    12128.028 
   11750    310.04679    233.27483   -3109.1608   -2647.9897    1038.8828    12127.004 
   11800    315.89125    233.42385   -3114.1282   -2644.2639     905.8599    12126.289 
   11850    314.26304    233.29656   -3109.8852   -2642.4428    1055.6906    12125.878 
   11900    300.15866    232.82737   -3094.2457   -2647.7824    1580.4157    12125.849 
   11950    315.23924    233.31631   -3110.5437   -2641.6492     1101.667    12126.418 
   12000    319.68748    233.40295   -3113.4317   -2637.9208    879.75121    12127.395 
   12050    333.38232    228.79336   -3126.4453   -2630.5644    454.61494    12128.606 
   12100    329.96651    228.65083   -3121.6943   -2630.8941    646.13909    12129.879 
   12150    297.88437    227.67989   -3089.3298   -2646.2493    1742.3336    12131.331 
   12200    305.65616    227.90522   -3096.8406   -2642.2002      1522.66    12133.427 
   12250    319.80657    228.41899   -3113.9664   -2638.2784    969.72805    12136.127 
   12300    320.78675    228.43337   -3114.4458   -2637.2998    797.84028    12139.169 
   12350    320.73627    228.35739   -3111.9129    -2634.842     725.9799    12142.432 
   12400    312.12354    228.04171   -3101.3904   -2637.1303    867.49889    12145.898 
   12450    332.29522    228.72204    -3124.068    -2629.804     233.6551    12149.567 
   12500    308.74595      227.922   -3097.4001   -2638.1639     879.8195    12153.231 
   12550    311.53126    228.00679   -3100.2264   -2636.8473    701.03166    12157.117 
   12600    312.07457    228.15901   -3105.3003   -2641.1131    528.91472    12161.198 
   12650    323.98722    228.46674    -3115.558   -2633.6516    142.02852    12165.357 
   12700    322.43437    228.46354   -3115.4514   -2635.8547    117.52789    12169.406 
   12750    301.21773    227.82041   -3094.0135    -2645.975    772.51908    12173.346 
   12800    293.56513    227.65405   -3088.4684   -2651.8125      989.054    12177.488 
   12850    299.19403     227.9211   -3097.3699   -2652.3414    710.06018    12181.952 
   12900     299.0427     227.8936   -3096.4534     -2651.65    600.30622    12186.625 
   12950    303.11202    227.97335   -3099.1117   -2648.2556    326.85037     12191.44 
   13000     324.9343     228.6499   -3121.6634   -2638.3483   -369.51807    12196.207 
   13050    302.19819    232.99414   -3099.8045   -2650.3076    249.41481    12200.654 
   13100    302.01626    233.01951   -3100.6503    -2651.424    209.42511    12205.009 
   13150    305.24822    233.19161   -3106.3872   -2652.3536    48.032426    12209.304 
   13200    310.32524    233.38985    -3112.995   -2651.4097   -217.99584    12213.445 
   13250    297.30608     232.9853     -3099.51   -2657.2897    34.649594    12217.317 
   13300    297.54453    232.94169   -3098.0562   -2655.4813    3.9038412    12221.001 
   13350     296.1991    232.92977   -3097.6591   -2657.0854   -63.391232    12224.511 
   13400    299.30463    233.08399   -3102.7996   -2657.6067   -289.35046    12227.783 
   13450      300.664     233.1101   -3103.6699    -2656.455   -429.95521    12230.735 
   13500    303.40048    233.28793   -3109.5977   -2658.3125     -530.333    12233.269 
   13550    294.06771    232.97265   -3099.0883   -2661.6848   -140.34607    12235.347 
   13600    290.93509    232.98552   -3099.5172   -2666.7733   -74.926645    12237.151 
   13650    280.50195     232.5615   -3085.3832   -2668.1578    127.46384    12238.754 
   13700    306.62428    233.38296   -3112.7654    -2656.685   -647.18432    12240.162 
   13750    299.34022    233.17002   -3105.6674   -2660.4215   -444.59045    12241.086 
   13800    300.56139    233.33083   -3111.0275   -2663.9652   -525.74404    12241.551 
   13850    293.30637     233.1348   -3104.4934   -2668.2224    -342.6029    12241.533 
   13900    278.20417     232.7112   -3090.3733   -2676.5656    48.666827     12241.15 
   13950    297.25581    233.35048   -3111.6827   -2669.5372   -620.55187     12240.54 
   14000    292.36579     233.2071   -3106.9033   -2672.0313    -479.2896    12239.433 
   14050    288.57922    228.08658   -3102.8861   -2673.6464   -282.67491    12237.839 
   14100     291.2397    228.17879   -3105.9598   -2672.7628   -371.78906    12235.858 
   14150     297.6723    228.43418   -3114.4726   -2671.7076   -651.33913    12233.437 
   14200    293.62927    228.33333   -3111.1109   -2674.3596   -615.67456    12230.438 
   14250    289.26338    228.22411   -3107.4703   -2677.2129   -465.78479    12226.874 
   14300    292.07785    228.36102   -3112.0342   -2677.5905    -467.0895    12222.807 
   14350     282.6604    227.93496    -3097.832   -2677.3961   -54.564461    12218.273 
   14400    300.80903    228.65552   -3121.8506   -2674.4199   -537.74129      12213.4 
   14450    288.94687     228.2938   -3109.7934   -2680.0068   -126.63556    12208.053 
   14500    291.55558    228.48051   -3116.0171   -2682.3503   -160.24273    12202.351 
   14550    292.97542    228.56665   -3118.8884   -2683.1096   -299.59945    12196.318 
   14600    308.12611    228.93547   -3131.1824   -2672.8682   -679.85076    12189.835 
   14650    297.28848    228.54277   -3118.0924   -2675.8983   -234.82327    12182.776 
   14700    304.23324    228.85752   -3128.5839     -2676.06   -241.69309    12175.278 
   14750    284.62629    228.25175   -3108.3915   -2685.0315    540.04533    12167.439 
   14800    302.10316    228.83342   -3127.7806    -2678.425    120.60036    12159.553 
   14850    303.63392     228.9462     -3131.54   -2679.9076    47.624061    12151.478 
   14900    289.24713    228.48079   -3116.0265   -2685.7933    528.20935    12143.183 
   14950    299.08396    228.76658   -3125.5526   -2680.6879    427.48452    12134.872 
   15000    292.26029     228.5095   -3116.9833   -2682.2683    801.52119     12126.54 
   15050    302.79788    228.90057   -3130.0191   -2679.6302    449.93549    12118.325 
   15100    318.23862    229.50306   -3150.1021   -2676.7463   -88.151681    12110.069 
   15150    289.11773    228.54505   -3118.1685   -2688.1277    866.45316    12101.576 
   15200    297.99359    228.83168   -3127.7227   -2684.4798    773.86095    12093.207 
   15250    298.71265    228.83001   -3127.6671   -2683.3547    853.18616    12085.004 
   15300    308.56898    229.23656   -3141.2188   -2682.2458    585.13984    12076.955 
   15350    312.08125    229.33687   -3144.5623   -2680.3651    498.74911    12068.957 
   15400    303.15307    229.05328   -3135.1093   -2684.1921    791.96744    12060.972 
   15450    298.72854     229.0097   -3133.6568   -2689.3208    877.96914    12053.124 
   15500    304.59609    229.33623    -3144.541   -2691.4774    761.37023    12045.434 
   15550     279.2234    228.45138   -3115.0461   -2699.7225      1650.97    12037.949 
   15600    306.44477    229.39592   -3146.5307   -2690.7173    885.52715    12030.973 
   15650    299.03433    229.17236   -3139.0785   -2694.2876    1015.9015    12024.274 
   15700    304.19283    229.43404   -3147.8012   -2695.3374    840.16777    12017.826 
   15750     294.8233    229.30343   -3143.4477   -2704.9204    1134.4893    12011.593 
   15800      296.494    229.38724   -3146.2412   -2705.2288    1097.1075    12005.704 
   15850    312.06191    229.90546   -3163.5154    -2699.347    661.73536    12000.123 
   15900    301.83597    229.70868    -3156.956   -2707.9978    1030.5354    11994.681 
   15950    293.54745    229.52159   -3150.7197   -2714.0901    1318.1022    11989.529 
   16000    287.60086    229.42438   -3147.4794   -2719.6949    1384.3458    11984.822 
   16050    303.91075    235.01196   -3167.0652    -2715.021    818.06972    11980.586 
   16100    288.49302    234.61572   -3153.8575    -2724.746    1237.3096     11976.61 
   16150    280.84002    234.44007   -3148.0022   -2730.2739    1528.2898    11973.047 
   16200    282.16319    234.58455   -3152.8184    -2733.122    1411.8106    11970.076 
   16250    291.47985    234.95666   -3165.2221   -2731.6679    1037.6241    11967.622 
   16300    276.27469    234.51349   -3150.4498   -2739.5122    1523.2457    11965.552 
   16350    283.97863    234.76749   -3158.9165   -2736.5198    1311.5941    11964.045 
   16400    302.58175    235.43695   -3181.2318   -2731.1644    703.11673    11963.006 
   16450    278.53146    234.72638   -3157.5461   -2743.2517    1383.7665    11962.209 
   16500    281.31346    234.78557   -3159.5192   -2741.0867    1216.4067    11961.901 
   16550    296.95512    235.35906   -3178.6354   -2736.9372    664.74915     11962.03 
   16600    288.16397    234.97373    -3165.791   -2737.1689    947.51373    11962.368 
   16650    283.77629    234.90092   -3163.3639   -2741.2682    1034.8161     11963.01 
   16700    284.61365    234.95632   -3165.2108   -2741.8696    985.33041    11964.018 
   16750    277.23693    234.74934   -3158.3113   -2745.9424    1179.2142    11965.384 
   16800    281.89107    234.90739   -3163.5796   -2744.2879    929.51073    11967.193 
   16850    295.72812     235.4195     -3180.65   -2740.7768    427.55538    11969.307 
   16900    280.46132    234.86502   -3162.1674   -2745.0024    974.67214     11971.53 
   16950    271.82326    234.56385   -3152.1283   -2747.8118    1265.9544    11974.099 
   17000    283.29268    235.00422   -3166.8073   -2745.4309    862.25106    11977.141 
   17050    288.29306    230.12512   -3170.8373   -2742.0233    694.93751    11980.492 
   17100    281.76818    229.89293   -3163.0976   -2743.9888    828.09565    11984.073 
   17150    269.16765     229.3759   -3145.8633   -2745.4968    1163.1997    11987.944 
   17200     290.9604      230.101   -3170.0333   -2737.2518    399.55813    11992.207 
   17250    289.66999     230.0052   -3166.8399   -2735.9777     338.7025    11996.576 
   17300    285.01065     229.8606   -3162.0199   -2738.0881     420.7755    12000.953 
   17350    299.91976    230.44574   -3181.5246   -2735.4167   -70.520194    12005.355 
   17400     284.3262    229.81623   -3160.5408   -2737.6272    415.70145    12009.637 
   17450    280.84387    229.69883   -3156.6275   -2738.8936    538.65753    12013.958 
   17500    277.68488     229.5309   -3151.0301   -2737.9949    622.92113    12018.413 
   17550    278.76645    229.46447   -3148.8156   -2734.1717    571.43573    12023.032 
   17600    289.68364    229.88027   -3162.6755   -2731.7931    216.60299    12027.777 
   17650    285.42719    229.67923   -3155.9742   -2731.4229    298.42823    12032.526 
   17700     291.7569    229.85366   -3161.7887   -2727.8224    68.945055    12037.246 
   17750    291.09944    229.71639   -3157.2131   -2724.2247    102.31315    12041.858 
   17800    287.01709    229.52878   -3150.9595   -2724.0433    254.14477    12046.377 
   17850    285.32499    229.42154   -3147.3846   -2722.9853    396.80386     12050.88 
   17900    275.22533    229.05457   -3135.1522   -2725.7754    789.90626    12055.458 
   17950    289.23195    229.52731   -3150.9104   -2720.6998    415.92202    12060.271 
   18000    296.73071    229.71403   -3157.1345     -2715.77    151.84424    12065.168 
   18050    298.53658    224.82094   -3160.6981   -2716.6476   -25.153056     12069.98 
   18100    296.25455    224.64941   -3154.9805   -2714.3243    34.119422    12074.616 
   18150    281.59477    224.06031   -3135.3438   -2716.4929    531.33302    12079.113 
   18200    284.57795    224.21114   -3140.3713   -2717.0831    501.35484    12083.705 
   18250    287.31812    224.17377   -3139.1255   -2711.7616    396.34973    12088.412 
   18300    299.29364    224.51445   -3150.4816    -2705.305   -35.201101    12093.141 
   18350    302.16343    224.51537   -3150.5124   -2701.0672   -99.308563    12097.702 
   18400    303.81758    224.48627   -3149.5423   -2697.6366   -97.480177    12102.027 
   18450    300.21644    224.46195   -3148.7316   -2702.1824   -96.599521    12106.124 
   18500    300.53277    224.43635   -3147.8784   -2700.8586   -190.15863    12109.977 
   18550    295.27821     224.2391   -3141.3032   -2702.0993    14.800585    12113.557 
   18600     290.0342     223.9421   -3131.4034   -2699.9995    285.57143     12116.96 
   18650    292.08206    223.90461   -3130.1537   -2695.7037    199.89228    12120.314 
   18700    305.72865    224.36332   -3145.4442    -2690.696   -260.97927    12123.561 
   18750    297.40872    224.04792   -3134.9307   -2692.5578    53.458632    12126.533 
   18800    288.87194    223.66871   -3122.2904   -2692.6152    306.80376    12129.339 
   18850    289.82327    223.72431   -3124.1436   -2693.0535    173.00551    12132.093 
   18900    292.70378    223.80392   -3126.7972   -2691.4226    22.567863    12134.763 
   18950    303.49487    224.16984   -3138.9947   -2687.5691   -253.93091    12137.227 
   19000    295.13877    223.90758   -3130.2528   -2691.2562    58.185466    12139.397 
   19050    300.64252    224.00904   -3133.6347   -2686.4518   -22.190893    12141.372 
   19100    295.54789    223.73878   -3124.6261    -2685.021    233.07825    12143.138 
   19150    301.79585    223.91821   -3130.6069   -2681.7085    48.626974    12144.787 
   19200    293.42775    223.69469   -3123.1562   -2686.7046    270.73118    12146.281 
   19250    300.44868    223.91712   -3130.5706    -2683.676    9.8236131     12147.69 
   19300    315.54487    224.30949   -3143.6498   -2674.3008   -421.66122     12148.87 
   19350    304.06665    223.97335    -3132.445   -2680.1689   -62.431687    12149.639 
   19400    287.84668    223.39546   -3113.1822    -2685.032    383.56325    12150.162 
   19450    311.92363    224.19022    -3139.674   -2675.7112   -392.74004    12150.586 
   19500     319.4827    224.37672   -3145.8906   -2670.6843   -608.12977    12150.605 
   19550    305.69173    223.83189   -3127.7297   -2673.0364   -68.116116    12150.091 
   19600    305.67696    223.81935   -3127.3116   -2672.6403    29.654883    12149.268 
   19650    295.99293    223.50617   -3116.8724   -2676.6053     354.7843    12148.232 
   19700    306.62337    223.88075   -3129.3583   -2673.2792    37.578717    12147.121 
   19750    303.81858    223.65474   -3121.8245   -2669.9174    132.38257    12145.831 
   19800    307.50684    223.83159   -3127.7197   -2670.3266    3.0224932    12144.338 
   19850    313.45204    224.08117   -3136.0391   -2669.8029   -94.716028    12142.577 
   19900    291.33605     223.4537   -3115.1233    -2681.783    577.79331    12140.558 
   19950    302.72041    223.71128   -3123.7093   -2673.4357    233.02414     12138.55 
   20000    310.12689    223.91634   -3130.5446   -2669.2544   -37.844925    12136.404 
   20050    290.86915     228.3198   -3110.6599   -2678.0141    622.04666     12134.04 
   20100    295.70578    228.41061   -3113.6871   -2673.8472    660.90808     12131.74 
   20150    305.14555    228.75187   -3125.0623   -2671.1814    338.61054    12129.554 
   20200    304.35463    228.63538   -3121.1793   -2668.4748    414.78329    12127.347 
   20250    294.98878    228.23594   -3107.8646   -2669.0912    823.40645    12125.132 
   20300    297.59534     228.4043   -3113.4768   -2670.8263    686.41754    12123.085 
   20350    306.94697    228.69514   -3123.1713   -2666.6109     376.6483    12121.167 
   20400    296.98119    228.47972   -3115.9906   -2674.2536    654.71598    12119.245 
   20450    306.65509    228.84923   -3128.3075   -2672.1813    309.74378    12117.418 
   20500    321.54951    229.23246   -3141.0819   -2662.8014   -73.031771    12115.509 
   20550    312.11903    228.86897   -3128.9657   -2664.7123    327.62479    12113.357 
   20600    312.99638    228.96107   -3132.0356   -2666.4772    319.63175    12111.122 
   20650    302.35292    228.57257   -3119.0857   -2669.3586    709.61083    12108.821 
   20700    294.11976     228.3257   -3110.8566   -2673.3758    964.40653    12106.648 
   20750    305.59202    228.69265   -3123.0883   -2668.5433     619.7301    12104.742 
   20800    305.58822     228.6424   -3121.4132   -2666.8739    704.19804    12102.956 
   20850    310.74191    228.76119    -3125.373    -2663.168    630.70576    12101.284 
   20900    310.36532    228.75232   -3125.0773   -2663.4324    661.25301    12099.722 
   20950    298.76736    228.36752   -3112.2506   -2667.8568    1034.7894    12098.299 
   21000    303.83208    228.59274   -3119.7582    -2667.831    864.24396    12097.171 
   21050    306.87772    228.77022   -3125.6739   -2669.2166    719.31236    12096.282 
   21100    309.15048    228.85559   -3128.5195   -2668.6816    589.04072    12095.555 
   21150    306.46789    228.77818   -3125.9394   -2670.0916    691.04419     12094.94 
   21200    290.24622    228.24144   -3108.0479   -2676.3286      1242.01    12094.494 
   21250    288.09119    228.16646   -3105.5487   -2677.0349    1368.8287    12094.479 
   21300     297.1962    228.52753   -3117.5843   -2675.5275    1061.2598    12094.974 
   21350    307.69525    228.87377   -3129.1256   -2671.4523    690.46963    12095.824 
   21400    313.62951    229.07443   -3135.8142   -2669.3141    488.42449    12096.842 
   21450    302.40329    228.59464   -3119.8214   -2670.0194    865.83835     12097.96 
   21500    302.93079    228.62306   -3120.7685   -2670.1819    884.83922    12099.297 
   21550     310.6193    228.94005   -3131.3351   -2669.3125    630.27259    12100.898 
   21600    314.50904    229.07549   -3135.8497   -2668.0413    459.50721    12102.658 
   21650    307.49497    228.86288   -3128.7626   -2671.3872    579.45093    12104.479 
   21700     306.0011    228.77434   -3125.8112   -2670.6578    657.14313    12106.403 
   21750    298.24631    228.62881   -3120.9605   -2677.3417    822.73505    12108.503 
   21800    312.65002    229.10945   -3136.9816   -2671.9384    353.48414    12110.828 
   21850    309.11737    229.03545    -3134.515   -2674.7264     427.9238    12113.172 
   21900    294.42714    228.58052   -3119.3508   -2681.4127    828.65608    12115.574 
   21950    290.23971    228.50397   -3116.7989   -2685.0893    803.47198    12118.216 
   22000    302.33137    228.93485   -3131.1617   -2681.4667    372.62024    12121.088 
   22050    309.22745    234.14744   -3138.2479   -2678.2955    49.948642    12123.995 
   22100    289.03949    233.48358   -3116.1193   -2686.1949    520.83015    12126.803 
   22150    298.44929    233.89666   -3129.8888   -2685.9681    137.42361    12129.658 
   22200    289.15092    233.58965    -3119.655   -2689.5649    354.83773    12132.476 
   22250    293.45208    233.77054   -3125.6847    -2689.197    189.55838    12135.301 
   22300     298.3266    234.06336   -3135.4452    -2691.707   -12.927829    12138.075 
   22350    291.14255    233.83924   -3127.9748   -2694.9223    173.62061     12140.69 
   22400    287.68486    233.72699    -3124.233   -2696.3235    179.78827    12143.228 
   22450    285.92674     233.8069   -3126.8966   -2701.6022    77.641076    12145.705 
   22500    286.24491    233.79093   -3126.3643   -2700.5967    13.795824    12148.063 
   22550      289.115    233.86256   -3128.7519   -2698.7152   -126.36183    12150.254 
   22600    275.74006    233.47694   -3115.8981   -2705.7557    175.34962    12152.233 
   22650     297.3914    234.23962   -3141.3205   -2698.9734   -503.61936    12154.076 
   22700    296.58474    234.25296   -3141.7652   -2700.6179   -587.65357    12155.514 
   22750    290.01469    234.09256   -3136.4188   -2705.0439   -405.78544    12156.453 
   22800    275.08278    233.53954   -3117.9846   -2708.8198    91.647102    12157.028 
   22850     280.7227    233.76494   -3125.4979   -2707.9442   -82.527467    12157.442 
   22900    284.79046    233.84628   -3128.2093   -2704.6051   -209.45439    12157.628 
   22950    273.68159     233.5076     -3116.92   -2709.8394    114.70157    12157.539 
   23000    277.84636    233.71509   -3123.8364    -2710.561   -64.042212     12157.29 
   23050    286.21382    228.94091   -3131.3638   -2705.6424   -297.63402    12156.814 
   23100    286.28693    229.02835   -3134.2785   -2708.4484   -370.81156    12155.975 
   23150    289.75681    229.13129   -3137.7096   -2706.7183   -444.63659    12154.712 
   23200    288.69592    229.08607   -3136.2023    -2706.789   -280.90441    12153.001 
   23250    281.06067    228.82237   -3127.4124   -2709.3559   -60.431883    12150.934 
   23300     287.1355    229.00764    -3133.588   -2706.4957   -238.59896    12148.573 
   23350    283.76402    228.99907   -3133.3022   -2711.2247   -155.09532    12145.872 
   23400    299.03501    229.48582   -3149.5273   -2704.7354   -512.57354    12142.831 
   23450    280.90312    228.97511   -3132.5036   -2714.6815    69.270266    12139.321 
   23500    279.05389    228.87819   -3129.2731   -2714.2016    143.89187    12135.582 
   23550    297.54795    229.38868   -3146.2895   -2703.7094   -373.72191    12131.659 
   23600    290.00255     229.1088   -3136.9601   -2705.6033   -213.82579    12127.346 
   23650    302.67544    229.56083   -3152.0277    -2701.821   -675.23568    12122.624 
   23700    304.01135    229.55532   -3151.8441   -2699.6502   -702.82814    12117.309 
   23750     289.0268    229.02839   -3134.2797   -2704.3742    -150.3047    12111.385 
   23800    290.49624    229.13119   -3137.7064   -2705.6153    59.769229    12105.086 
   23850    274.91323    228.52346   -3117.4485   -2708.5359    765.44112    12098.603 
   23900     285.8976     228.9413   -3131.3767   -2706.1256    532.03531    12092.213 
   23950    294.93524    229.24248   -3141.4161   -2702.7223    235.44831    12085.852 
   24000    291.62392    229.10843   -3136.9478   -2703.1793    351.02215    12079.383 
   24050    294.07963    229.12454   -3137.4847   -2700.0635    535.18928    12072.842 
   24100    285.00706    228.92974   -3130.9912   -2707.0648    901.70787    12066.341 
   24150    296.45016    229.20518   -3140.1726   -2699.2255    702.70613    12060.016 
   24200    295.32683     229.1318   -3137.7268   -2698.4505    797.15548    12053.843 
   24250    305.93173    229.49513   -3149.8378   -2694.7876    598.62136    12047.814 
   24300    294.63587    229.06253   -3135.4177   -2697.1692     1080.263    12041.895 
   24350    317.81287    229.79974   -3159.9915   -2687.2689    521.50395    12036.229 
   24400     299.9961    229.11761   -3137.2536   -2691.0322    1160.1209    12030.668 
   24450     303.3522    229.20554   -3140.1846   -2688.9712    1155.0729    12025.421 
   24500    314.11386    229.54863    -3151.621   -2684.4004    946.73584    12020.535 
   24550    301.68179    229.13685   -3137.8949   -2689.1661    1414.2229    12015.951 
   24600    318.26141    229.57716   -3152.5721   -2679.1823    1051.9525    12011.817 
   24650    314.83716    229.42681   -3147.5602   -2679.2638    1088.3116     12008.03 
   24700    315.84133    229.48975   -3149.6583   -2679.8682    1123.8577    12004.547 
   24750     298.4841     228.8317   -3127.7234   -2683.7509    1817.2914     12001.46 
   24800    316.57137    229.42187   -3147.3958   -2676.5199    1341.9401    11999.028 
   24850    310.48701    229.15841   -3138.6138   -2676.7879    1576.7911    11997.112 
   24900    320.40307    229.51137   -3150.3789   -2673.8036    1297.4564    11995.754 
   24950    321.62036    229.45222   -3148.4073   -2670.0214    1295.5074    11994.889 
   25000    306.41925    228.86582   -3128.8608   -2673.0854    1928.6622    11994.517 
   25050    322.43988    224.35897   -3145.2988    -2665.694    1561.5905    11994.869 
   25100     328.5573     224.5884   -3152.9466   -2664.2425    1271.7755    11995.825 
   25150    308.59738    223.97343   -3132.4476   -2673.4324    1753.7714    11997.254 
   25200    311.47021    223.93028   -3131.0094   -2667.7211    1726.3636    11999.375 
   25250    319.46888    224.26851   -3142.2838   -2667.0981     1433.731    12002.204 
   25300    330.39064    224.53834   -3151.2781    -2659.847    1149.8788    12005.564 
   25350    311.54351    223.89558   -3129.8527   -2666.4554    1717.4399    12009.365 
   25400    312.62854    223.96855   -3132.2849   -2667.2736    1627.7283     12013.83 
   25450    312.79562    223.95331    -3131.777   -2666.5173    1481.8989    12018.981 
   25500    337.85313    224.78675   -3159.5584   -2657.0274    783.72327    12024.659 
   25550    315.41969    224.01753   -3133.9177   -2664.7548    1404.0718    12030.617 
   25600    304.67982    223.77359   -3125.7865   -2672.5983    1604.8625    12037.099 
   25650    306.89927    223.74871   -3124.9572   -2668.4678    1400.7626    12044.253 
   25700    320.57157    224.22046   -3140.6821   -2663.8562    848.84957    12051.949 
   25750    316.45841    224.04703   -3134.9009    -2664.193    926.60376    12059.951 
   25800     316.3461    224.06932   -3135.6441   -2665.1033    871.23922     12068.24 
   25850    304.55164    223.71304   -3123.7679   -2670.7704    1096.6022    12076.836 
   25900    316.20039    224.11866   -3137.2887   -2666.9646    644.77885      12085.8 
   25950    306.59521    223.84177   -3128.0591    -2672.022    826.99013    12094.973 
   26000    292.00072    223.33372   -3111.1242   -2676.7952    1139.8037    12104.429 
   26050     295.8807    228.54861   -3118.2871    -2678.187    690.96674    12114.293 
   26100     311.9101    229.07235    -3135.745   -2671.8024   -42.959606     12124.37 
   26150    299.30528    228.60603   -3120.2011   -2675.0072    306.97537    12134.328 
   26200    297.94424    228.56289   -3118.7629   -2675.5934    321.60258    12144.267 
   26250    296.59344    228.48351    -3116.117   -2674.9568    229.36103    12154.233 
   26300    297.32433    228.56435   -3118.8118   -2676.5643    35.298578    12164.165 
   26350    294.87233    228.55551   -3118.5169   -2679.9167    23.104776    12173.966 
   26400    283.41731     228.2048   -3106.8266   -2685.2649    261.12643    12183.633 
   26450    289.25153    228.42635   -3114.2116   -2683.9719   -91.288981    12193.268 
   26500    295.98218    228.70315   -3123.4383   -2683.1873    -497.9486    12202.688 
   26550    288.11842    228.45078   -3115.0261   -2686.4718   -428.58604    12211.695 
   26600    291.38212     228.5827   -3119.4233   -2686.0145   -637.39466    12220.285 
   26650     296.3126    228.67122   -3122.3742   -2681.6316    -799.7543    12228.349 
   26700    292.65702     228.5382     -3117.94   -2682.6349   -752.66534    12235.809 
   26750    292.51388    228.56316    -3118.772   -2683.6798   -832.98088    12242.657 
   26800    284.80785     228.2555   -3108.5167   -2684.8867   -606.74115    12248.888 
   26850    288.32609    228.34314    -3111.438   -2682.5748   -650.33974    12254.596 
   26900    279.45903    228.05971   -3101.9902   -2686.3161   -483.20445    12259.784 
   26950    291.89783    228.43776   -3114.5921   -2680.4162   -976.88879    12264.464 
   27000    280.31772    227.97916   -3099.3053    -2682.354   -705.95093    12268.458 
   27050    285.27074    233.26869   -3108.9563   -2684.6376    -975.5635    12271.835 
   27100    292.34371    233.59389   -3119.7963   -2684.9572   -1272.7329    12274.493 
   27150    276.75156    232.98942   -3099.6473   -2688.0003   -773.09043    12276.317 
   27200    269.11827    232.71367   -3090.4557   -2690.1626   -528.69108    12277.508 
   27250    275.08417    232.89992   -3096.6639    -2687.497   -763.06902    12278.211 
   27300    279.32947    232.98499   -3099.4997   -2684.0183   -939.69664    12278.324 
   27350    289.37823    233.26173   -3108.7244   -2678.2962   -1118.6095    12277.709 
   27400    293.40968    233.32811   -3110.9369   -2674.5123   -1172.2939    12276.302 
   27450    306.95701    233.80516   -3126.8388   -2670.2635   -1540.8311     12274.02 
   27500    292.77695    233.34516   -3111.5054   -2676.0219   -986.79938     12270.72 
   27550    280.32408    232.90307    -3096.769   -2679.8082     -486.742    12266.643 
   27600    288.79202    233.12723   -3104.2409   -2674.6847   -591.34744    12262.058 
   27650    292.10793    233.16888   -3105.6293   -2671.1409   -558.93262    12256.954 
   27700    292.55676    233.07453   -3102.4842   -2667.3282   -405.89995    12251.335 
   27750    297.67977    233.17225   -3105.7415   -2662.9654   -376.35065    12245.272 
   27800     297.7243     233.1523   -3105.0765   -2662.2342   -198.95368    12238.785 
   27850    302.85143    233.13038    -3104.346   -2653.8775   -142.13259    12231.957 
   27900     310.2863    233.32806   -3110.9352   -2649.4078   -253.57232    12224.815 
   27950    298.20666     232.8568   -3095.2265   -2651.6667    236.08286    12217.348 
   28000    290.84309    232.58218   -3086.0725   -2653.4655    677.68138    12209.788 
   28050    316.93465    238.32903   -3110.9677   -2639.5515    102.44261    12202.338 
   28100    323.87318    238.51166   -3117.0555   -2635.3187    1.0060255     12194.76 
   28150    304.47251    237.77611   -3092.5368   -2639.6571    743.34018    12187.008 
   28200    300.63994     237.6107   -3087.0234   -2639.8443    981.93753    12179.422 
   28250    305.09144    237.68099   -3089.3662   -2635.5658     1051.474    12172.166 
   28300    306.88847    237.73388   -3091.1293    -2634.656    1105.1271    12165.281 
   28350    334.76211    238.66542   -3122.1806   -2624.2473    374.22264    12158.718 
   28400    321.62635    238.18723    -3106.241   -2627.8462    884.31155    12152.226 
   28450    312.34763    237.88356   -3096.1186   -2631.5252    1237.0688        12146 
   28500    315.34364     237.8327   -3094.4233   -2625.3735    1273.0324    12140.215 
   28550    313.76129    237.72178   -3090.7259   -2624.0298    1465.5876    12134.923 
   28600    315.72509     237.8656   -3095.5201    -2625.903    1443.4122    12130.217 
   28650    322.43134    238.12222   -3104.0741   -2624.4819    1227.9295    12126.075 
   28700    308.73199    237.66832    -3088.944   -2629.7286    1648.1378    12122.432 
   28750    307.50569    237.61837   -3087.2789   -2629.8875    1723.7362    12119.457 
   28800    322.73521    238.08592   -3102.8641   -2622.8199    1359.7937    12117.179 
   28850    318.12829    238.05305   -3101.7682   -2628.5765    1374.3388     12115.45 
   28900    328.05354     238.3102     -3110.34   -2622.3852    1087.1987    12114.245 
   28950    319.56993    238.07012   -3102.3372   -2627.0012    1386.9821    12113.471 
   29000    310.47769    237.74513   -3091.5043   -2629.6922    1713.2195    12113.241 
   29050    314.35652    232.90997    -3096.999   -2629.4175    1570.3894    12113.701 
   29100    325.95373    233.38925   -3112.9751   -2628.1436     1089.293     12114.79 
   29150    315.25831    233.05651   -3101.8838   -2632.9609     1271.344    12116.313 
   29200    306.33693    232.80756   -3093.5853   -2637.9323     1407.557    12118.305 
   29250    321.29946    233.31762   -3110.5875   -2632.6789    971.89807    12120.816 
   29300    318.14487    233.17613   -3105.8711   -2632.6547    1183.9825    12123.686 
   29350    313.62466    233.08157    -3102.719   -2636.2261    1341.9487    12126.981 
   29400    305.12224    232.77587   -3092.5291   -2638.6829    1365.2018    12130.799 
   29450    320.40352    233.32371   -3110.7904   -2634.2145    798.55915    12135.111 
   29500    300.46811    232.81048   -3093.6827   -2646.7592    1309.8216    12139.735 
   29550    319.25225    233.43892   -3114.6307   -2639.7672    615.09357    12144.802 
   29600    312.34712    233.17187   -3105.7291   -2641.1364    794.08782    12150.058 
   29650    303.69062    232.94337   -3098.1122   -2646.3954    1030.2151     12155.54 
   29700    299.39073    232.86543   -3095.5145   -2650.1935    1017.0969    12161.385 
   29750    302.52853    232.99298   -3099.7659   -2649.7777    836.17412    12167.572 
   29800    305.68554    233.15189   -3105.0631    -2650.379    578.45505     12174.03 
   29850    308.23621     233.3017   -3110.0567   -2651.5787    338.42277    12180.613 
   29900    297.04796    232.98579   -3099.5263     -2657.69    481.06256    12187.224 
   29950    305.57845    233.37557   -3112.5191   -2657.9943    49.943156    12193.886 
   30000    310.22794    233.51663   -3117.2209   -2655.7804   -208.44792    12200.389 
   30050    294.61039    238.02196   -3100.7321   -2662.5215    153.56027    12206.633 
   30100    282.37795    237.59763   -3086.5878    -2666.572    504.52588    12212.795 
   30150    289.32904    237.83208   -3094.4026   -2664.0475    256.62716    12219.026 
   30200    299.76481    238.22285   -3107.4284   -2661.5509   -238.98553     12225.23 
   30250    306.18504    238.48632   -3116.2108   -2660.7838   -618.62589     12231.15 
   30300    294.46399    238.07481   -3102.4937   -2664.5008   -262.51885      12236.6 
   30350    287.51901     237.9296   -3097.6532   -2669.9905   -83.720512    12241.722 
   30400    291.06597    238.06604   -3102.2015   -2669.2629   -248.53301    12246.612 
   30450    295.29272    238.18537   -3106.1789   -2666.9534   -404.29462    12251.198 
   30500    292.74918    238.11866   -3103.9553   -2668.5131   -322.05677    12255.401 
   30550    278.75755    237.71147   -3090.3824   -2675.7517   -11.299639    12259.279 
   30600    292.58539    238.15517   -3105.1723   -2669.9737   -543.00923    12262.931 
   30650    285.31366    237.89385   -3096.4616   -2672.0792   -360.38809    12266.151 
   30700    283.70852    237.78313   -3092.7708   -2670.7759   -347.41169    12268.988 
   30750     290.4287    238.07895   -3102.6318   -2670.6411   -560.34272    12271.445 
   30800    277.78159    237.64821   -3088.2737   -2675.0946    -138.4855     12273.45 
   30850    283.29772    237.87622   -3095.8739     -2674.49   -391.15937     12275.18 
   30900    293.81756    238.24307   -3108.1023   -2671.0709   -828.22132    12276.527 
   30950    295.09383    238.19914   -3106.6382   -2667.7084   -841.61753    12277.248 
   31000    292.25062    238.09925   -3103.3084   -2668.6078   -694.89784    12277.335 
   31050    298.11248    238.27518   -3109.1727    -2665.753   -850.53332    12276.843 
   31100    294.65801     238.2588   -3108.6266   -2670.3451   -815.77242    12275.703 
   31150    277.43098    237.65158    -3088.386   -2675.7284   -203.15565    12273.958 
   31200    271.91284    237.47913   -3082.6377    -2678.188    49.193838    12271.905 
   31250     277.9474    237.63539   -3087.8462   -2674.4205    -64.63693    12269.688 
   31300    276.52435    237.63067   -3087.6888   -2676.3798   -50.122244    12267.267 
   31350    291.90826    238.12206   -3104.0686   -2669.8772   -574.36793    12264.597 
   31400    283.34717    237.83894   -3094.6312   -2673.1738   -356.43286    12261.473 
   31450    290.33519    237.95362   -3098.4541   -2666.6025   -439.91744    12257.933 
   31500    291.35318    238.02848   -3100.9494   -2667.5836   -374.04161    12253.968 
   31550    294.22294    238.07607   -3102.5356   -2664.9013   -431.73762    12249.615 
   31600     301.2572    238.35247   -3111.7489   -2663.6516   -651.72916     12244.82 
   31650     299.3411    238.22871   -3107.6238   -2662.3766    -424.6196     12239.49 
   31700    296.17401    238.07574   -3102.5246   -2661.9882   -178.79424    12233.727 
   31750    288.91136    237.82788   -3094.2626   -2664.5288    53.925029    12227.683 
   31800    298.25988    238.11436   -3103.8119    -2660.173   -87.977795    12221.454 
   31850     287.5309     237.7324   -3091.0801   -2663.3997    442.51328     12215.01 
   31900      292.321    237.88542   -3096.1808   -2661.3754    379.60753    12208.593 
   31950    314.55509    238.63096   -3121.0321   -2653.1552   -232.03971    12202.164 
   32000    305.42869    238.24652   -3108.2174   -2653.9153     161.2201    12195.469 
   32050    300.37545    233.10706   -3103.5687    -2656.783    347.74158    12188.641 
   32100    301.96835    233.06394   -3102.1313   -2652.9763    399.14015    12181.776 
   32150    293.95042    232.79451   -3093.1504   -2655.9214    773.07746    12174.934 
   32200    307.41335    233.23713   -3107.9042   -2650.6501    534.70601    12168.258 
   32250    310.03784    233.28878   -3109.6261   -2648.4683    538.32642    12161.687 
   32300    301.29469     232.9755   -3099.1834   -2651.0304     932.0154    12155.202 
   32350     297.9471    232.86189   -3095.3964   -2652.2226    1173.4562        12149 
   32400    322.36141    233.74686   -3124.8952    -2645.407    578.73964    12143.179 
   32450    309.12006    233.26451   -3108.8171   -2649.0244    1001.3819    12137.523 
   32500    319.58294    233.56072   -3118.6906   -2643.3352    696.58644    12132.144 
   32550    311.09357    233.20224   -3106.7412   -2644.0131    980.89357    12126.963 
   32600    318.87319    233.45858   -3115.2861   -2640.9864    820.27597    12122.065 
   32650    309.63403    233.16648   -3105.5494   -2644.9922     1184.386     12117.43 
   32700    313.92997    233.22782   -3107.5939   -2640.6469    1136.4154    12113.182 
   32750    331.70601    233.79652   -3126.5507   -2633.1632    613.42948    12109.296 
   32800    312.91273    233.15932   -3105.3108   -2639.8768    1287.7045    12105.581 
   32850    313.74492    233.07173    -3102.391   -2635.7192    1342.4661    12102.316 
   32900    317.95887    233.29011   -3109.6702   -2636.7305     1204.475    12099.548 
   32950    311.44219    233.14322   -3104.7741   -2641.5275    1468.9553     12097.23 
   33000    317.62646    233.43188   -3114.3961   -2641.9508    1241.8259    12095.455 
   33050    305.52153    228.08971   -3102.9903   -2648.5502    1479.8606    12094.153 
   33100    320.88097    228.50463   -3116.8211    -2639.535    1060.2886    12093.376 
   33150     320.8595    228.46825   -3115.6084   -2638.3542    1107.6352    12092.982 
   33200    328.63282    228.78809   -3126.2696   -2637.4532    902.50252    12092.938 
   33250    326.78949    228.76329   -3125.4429   -2639.3683    877.56756    12093.148 
   33300     313.2864     228.4177   -3113.9235   -2647.9337    1184.2316    12093.611 
   33350     309.3326    228.26959   -3108.9864   -2648.8776    1309.4416     12094.47 
   33400    305.75802    228.13648   -3104.5495   -2649.7576    1491.5956    12095.818 
   33450    317.53383    228.52767   -3117.5889   -2645.2814    1130.6362    12097.716 
   33500    310.23554    228.29427   -3109.8092   -2648.3573    1223.0881    12100.044 
   33550    308.14998    228.37078   -3112.3593   -2654.0096    1077.9952    12102.793 
   33600    311.02061    228.48424   -3116.1413   -2653.5217    926.85331    12105.896 
   33650    310.51977    228.55291   -3118.4304   -2656.5557    881.07409    12109.286 
   33700    298.95002    228.16486   -3105.4952   -2660.8297    1179.6736    12112.956 
   33750    293.74002    228.05557   -3101.8525   -2664.9365    1260.6682    12117.041 
   33800    317.51153    228.82556   -3127.5185   -2655.2442    488.35204    12121.546 
   33850    308.63758    228.57972   -3119.3238   -2660.2488     617.5536    12126.169 
   33900    310.50908    228.67283   -3122.4277   -2660.5689    503.88872    12130.894 
   33950    305.30589    228.54947   -3118.3157   -2664.1963     606.3615    12135.717 
   34000    301.77239    228.53055    -3117.685   -2668.8214     623.1392    12140.645 
   34050    308.67915    233.79649   -3126.5496   -2667.4127    269.63849    12145.684 
   34100    308.85197     233.8165   -3127.2168   -2667.8229    105.92647    12150.699 
   34150    298.82841    233.44863   -3114.9545   -2670.4699    358.00006    12155.595 
   34200     292.5618    233.34576   -3111.5254   -2676.3619    405.15878    12160.477 
   34250    295.44319    233.49631   -3116.5438   -2677.0944    176.23113    12165.384 
   34300     300.7085    233.70245   -3123.4151    -2676.134   -103.65153    12170.208 
   34350    308.34331    233.97261   -3132.4203    -2673.783   -446.39422    12174.767 
   34400    302.19061    233.81212   -3127.0707   -2677.5851   -319.39757    12178.913 
   34450    288.47168    233.35388   -3111.7962   -2682.7164    117.38139    12182.698 
   34500    273.87612    232.90358    -3096.786    -2689.416    492.98323    12186.366 
   34550    275.58466    232.91705   -3097.2349   -2687.3236    340.15805    12190.106 
   34600    287.62843    233.38607    -3112.869   -2685.0435   -78.161958    12193.834 
   34650    282.69898     233.1995   -3106.6499   -2686.1566    70.366143    12197.382 
   34700    288.09327    233.44261   -3114.7538   -2686.2369    -166.0367    12200.754 
   34750     291.2968    233.40988   -3113.6626   -2680.3807    -328.9897    12203.857 
   34800    286.16465    233.27123    -3109.041   -2683.3927   -299.88338    12206.608 
   34850    290.76558    233.39734   -3113.2447   -2680.7529   -451.49451    12208.986 
   34900    293.05684    233.62342   -3120.7808    -2684.881   -575.06837    12210.936 
   34950    291.17424    233.52621   -3117.5404   -2684.4407   -496.14233    12212.388 
   35000    283.01636    233.18696   -3106.2321   -2685.2667   -159.86175    12213.392 
   35050    285.47409    233.27703   -3109.2344   -2684.6133   -244.73713    12214.106 
   35100    288.60226    233.40038    -3113.346    -2684.072   -419.26315    12214.498 
   35150    289.30097    233.36325   -3112.1082   -2681.7949   -448.86087    12214.464 
   35200    300.45216    233.78751   -3126.2504   -2679.3506   -725.59285    12213.942 
   35250    289.50386    233.35344   -3111.7815   -2681.1664   -340.47287    12212.871 
   35300     297.4818    233.60762    -3120.254   -2677.7724   -543.68366    12211.381 
   35350    301.56765    233.67934   -3122.6448   -2674.0858   -570.38935    12209.416 
   35400    295.60888    233.47755   -3115.9185   -2676.2227   -325.44616     12206.96 
   35450    302.52773    233.72717   -3124.2388   -2674.2518   -536.16235    12204.093 
   35500    298.33114    233.51665   -3117.2217   -2673.4767   -318.57862    12200.741 
   35550    287.97861    233.27738   -3109.2459   -2680.8995    76.752977    12197.031 
   35600    298.23135    233.68916   -3122.9718   -2679.3753   -143.03534    12193.124 
   35650     295.4702    233.49463   -3116.4878   -2676.9983     33.58675    12188.971 
   35700    286.47341    233.19336   -3106.4453   -2680.3378    358.09757    12184.644 
   35750    284.49511    233.16151   -3105.3835   -2682.2186    416.88196    12180.294 
   35800    281.99334    233.08522   -3102.8406   -2683.3969    580.44045    12175.997 
   35850    287.62132    233.29611   -3109.8704   -2682.0555    561.98974    12171.802 
   35900    285.67827     233.1277   -3104.2568    -2679.332    619.69485    12167.732 
   35950    301.66939    233.55985   -3118.6617   -2669.9513    111.90221    12163.764 
   36000    299.70115     233.5066   -3116.8866   -2671.1038    172.06831    12159.691 
   36050    311.06572    233.95265   -3131.7552   -2669.0685   -113.08683    12155.481 
   36100    307.35911    233.76176   -3125.3921   -2668.2188     159.1288    12151.023 
   36150    296.00956     233.3308   -3111.0267   -2670.7349    663.68375     12146.44 
   36200    318.15901    234.13874   -3137.9578   -2664.7204   -24.188818    12141.953 
   36250    299.93013    233.54494   -3118.1647   -2672.0414    540.40423    12137.316 
   36300    277.53871    232.84037   -3094.6791   -2681.8613    1322.1838    12132.769 
   36350    291.79827    233.22172   -3107.3905   -2673.3627    1016.7212    12128.705 
   36400     304.4435     233.6881   -3122.9366      -2670.1    648.26898    12124.985 
   36450    296.00454    233.24882    -3108.294   -2668.0096    973.99011    12121.457 
   36500    305.96822    233.63378    -3121.126   -2666.0215    689.24928    12118.207 
   36550    302.12082    233.55131    -3118.377   -2668.9952    894.76991    12115.138 
   36600    302.16301    233.57722   -3119.2408   -2669.7962    964.39857    12112.339 
   36650    303.24116    233.50498   -3116.8326   -2665.7843    915.46291    12109.863 
   36700    309.98767    233.68183   -3122.7277   -2661.6445    731.72436    12107.648 
   36750    294.50465    233.14302   -3104.7674   -2666.7141    1191.4665    12105.663 
   36800    297.55601    233.18081   -3106.0271   -2663.4351    1122.3595    12104.076 
   36850      304.415    233.34173   -3111.3909   -2658.5966    1053.5825    12102.894 
   36900    295.36969    232.97094   -3099.0314   -2659.6913    1400.4717    12102.105 
   36950    306.21963    233.39262   -3113.0872   -2657.6087    1059.5723    12101.824 
   37000    302.48844    233.25309   -3108.4363   -2658.5077    1153.3354    12101.941 
   37050    306.02367    233.41403   -3113.8009   -2658.6138    1028.0664    12102.451 
   37100    314.10275     233.6744   -3122.4801   -2655.2761    856.67153    12103.297 
   37150    295.81167    233.02542   -3100.8473   -2660.8499    1523.5499    12104.448 
   37200    299.85829    233.14431   -3104.8103   -2658.7938     1377.417    12106.176 
   37250    310.26122    233.58908    -3119.636    -2658.146    910.99463    12108.428 
   37300    314.62891    233.66422   -3122.1408   -2654.1542      801.914    12110.987 
   37350    303.21979    233.25643   -3108.5476   -2657.5311    1223.0031    12113.822 
   37400    324.48845    233.90213   -3130.0711   -2647.4191    649.90428    12117.048 
   37450    311.18577    233.36456   -3112.1521   -2649.2868    1059.4365    12120.499 
   37500    307.13975    233.16418   -3105.4727   -2648.6256    1224.5863    12124.295 
   37550    307.79103    233.34125    -3111.375   -2653.5592    1172.8448    12128.545 
   37600    296.03646    232.88423   -3096.1409   -2655.8091    1520.8564    12133.266 
   37650    308.56928     233.2494   -3108.3134     -2649.34    1031.4689    12138.577 
   37700     302.0971     233.0697   -3102.3233   -2652.9767     1143.803      12144.3 
   37750    295.32946    232.87361   -3095.7871   -2656.5069    1297.2772    12150.449 
   37800    301.53389    233.00352   -3100.1172   -2651.6084    988.03587    12157.099 
   37850    308.76389    233.24272   -3108.0907   -2648.8278     584.7522    12164.095 
   37900    315.16428    233.42939   -3114.3129   -2645.5299    334.51128    12171.225 
   37950      299.587    232.94264   -3098.0881   -2652.4752    722.43743    12178.409 
   38000    309.05418    233.19806   -3106.6019   -2646.9072    299.92882    12185.752 
   38050     312.6165    238.30253   -3110.0843   -2645.0909    87.893042     12193.09 
   38100     306.8971    238.10736   -3103.5787   -2647.0925    346.07807    12200.326 
   38150    294.30934    237.64847   -3088.2825   -2650.5196    741.79145    12207.575 
   38200      305.036    237.98232   -3099.4105   -2645.6926    204.04367    12215.029 
   38250    313.09498    238.13282   -3104.4273   -2638.7223   -166.71877    12222.421 
   38300    291.48205    237.47365    -3082.455   -2648.8976    521.40288    12229.594 
   38350    292.53304      237.533   -3084.4334   -2649.3126    498.26952    12236.858 
   38400    291.62255    237.58388   -3086.1294    -2652.363    277.43502    12244.224 
   38450    288.15057    237.42372   -3080.7907   -2652.1886    206.97552    12251.598 
   38500      299.628    237.87543   -3095.8478   -2650.1739   -183.53366    12258.884 
   38550    287.77325     237.3709     -3079.03   -2650.9891    172.52228    12265.947 
   38600    310.14961    238.13297   -3104.4324   -2643.1084   -569.55847    12272.856 
   38650    303.64511    237.83633   -3094.5443   -2642.8952   -484.06973    12279.352 
   38700     306.4065    237.98966   -3099.6553   -2643.8988   -640.15806     12285.37 
   38750    298.34638    237.65795   -3088.5982   -2644.8306   -430.02182    12290.876 
   38800     297.1051    237.60624   -3086.8747   -2644.9534   -404.78018    12295.955 
   38850    301.63116    237.62663   -3087.5542   -2638.9007   -496.94204    12300.623 
   38900    284.85364    237.03163   -3067.7209   -2644.0227   -28.666652    12304.877 
   38950    297.60589    237.36985    -3078.995   -2636.3288   -456.32109    12308.877 
   39000    300.09516    237.52748   -3084.2493   -2637.8805    -603.5842    12312.454 
   39050    284.51477    242.00377   -3066.7925   -2643.5983   -154.76941    12315.567 
   39100    303.58494    242.56645   -3085.5484   -2633.9888   -716.91451    12318.368 
   39150    288.75643    242.03533   -3067.8444   -2638.3411   -232.36322    12320.652 
   39200    284.25282    241.84842   -3061.6139   -2638.8093   -38.822374    12322.619 
   39250    295.36127    242.24134   -3074.7113   -2635.3838   -359.34303     12324.37 
   39300    299.68534    242.37932   -3079.3107   -2633.5515   -448.85231    12325.757 
   39350    300.16188    242.31742   -3077.2472   -2630.7791   -371.41605    12326.731 
   39400    299.07401    242.20188   -3073.3961   -2628.5462   -261.25657    12327.312 
   39450    294.67731    241.93138   -3064.3792    -2626.069   -98.796432    12327.584 
   39500     299.2501    242.11593   -3070.5309   -2625.4191    -211.2764    12327.608 
   39550    287.13409    241.68389   -3056.1297   -2629.0395    228.46574    12327.387 
   39600     310.3005    242.37715   -3079.2385     -2617.69   -348.64413    12327.041 
   39650    305.24223    242.12448    -3070.816   -2616.7913   -147.60318    12326.371 
   39700    295.11806    241.73967    -3057.989   -2619.0232    209.18713    12325.446 
   39750    306.15892    242.16817   -3072.2724   -2616.8842   -65.641274    12324.408 
   39800    308.92574    242.18106    -3072.702   -2613.1984    -120.4884    12323.174 
   39850    297.21916    241.65964   -3055.3212   -2613.2303    314.06828    12321.722 
   39900    289.55955    241.49144   -3049.7146   -2619.0167    573.42166    12320.248 
   39950     304.7058    242.00015   -3066.6718    -2613.445    211.62442    12318.879 
   40000    306.46775    241.86977   -3062.3256   -2606.4781    282.80287    12317.486 
   40050    312.12512    242.10294   -3070.0979   -2605.8355    128.55612    12316.044 
   40100    321.80895    242.36554   -3078.8513   -2600.1849   -156.24677    12314.474 
   40150    319.44497    242.17877   -3072.6256   -2597.4754   -27.238521     12312.66 
   40200    321.27885    242.28612    -3076.204    -2598.326   -11.771718    12310.627 
   40250     317.9208     242.1836   -3072.7866   -2599.9035    96.262438    12308.405 
   40300    312.91196    241.96281   -3065.4271   -2599.9942    322.36276    12306.035 
   40350      303.687    241.66875   -3055.6249   -2603.9135    658.50059    12303.661 
   40400    313.37821    241.96171   -3065.3905   -2599.2641    412.03013    12301.432 
   40450     310.3209    241.87327   -3062.4425   -2600.8637    592.32669    12299.269 
   40500    304.68303     241.6823   -3056.0766   -2602.8837    807.75699    12297.258 
   40550    312.96092    242.02507   -3067.5022   -2601.9966    527.98168    12295.474 
   40600    312.23496    241.93541   -3064.5137   -2600.0878    579.73918    12293.826 
   40650     321.1883    242.20482    -3073.494   -2595.7508    304.86731    12292.282 
   40700    320.29242    242.19849   -3073.2831   -2596.8724    306.90003    12290.726 
   40750    310.10568    241.87313   -3062.4376   -2601.1789    726.15204    12289.167 
   40800    304.39655    241.58862   -3052.9539   -2600.1871    1035.2154    12287.818 
   40850     312.1749     241.8811   -3062.7035    -2598.367    726.37552     12286.82 
   40900    316.55358    241.96328   -3065.4426   -2594.5931    648.56229     12286.05 
   40950    298.39134    241.44256   -3048.0854   -2604.2509    1282.7677    12285.492 
   41000    297.41607    241.41731   -3047.2438   -2604.8599    1285.3565    12285.429 
   41050    301.97249    246.64147   -3054.7156   -2605.5544    1024.9866    12285.908 
   41100    295.27705     246.3828   -3046.0933    -2606.891     1229.299    12286.815 
   41150    305.26447    246.72764    -3057.588   -2603.5302    867.44285    12288.213 
   41200    311.24012    246.86367   -3062.1223   -2599.1762    605.92125    12289.943 
   41250    315.91538    247.00981   -3066.9936   -2597.0934    389.54216    12291.849 
   41300    314.48145    247.10836   -3070.2787   -2602.5114    310.57559    12293.819 
   41350    310.13732    246.94136    -3064.712   -2603.4062    402.68675    12295.806 
   41400    307.94147    246.98179   -3066.0598   -2608.0202    345.30491    12297.853 
   41450     306.3866    246.87801   -3062.6004   -2606.8735    387.96939    12299.946 
   41500     317.6278    247.23551    -3074.517   -2602.0698    3.4095015    12302.059 
   41550    311.76918    247.01956   -3067.3187   -2603.5857    117.39339    12304.038 
   41600    293.71928    246.44109   -3048.0363   -2611.1512    656.74047    12305.944 
   41650    296.46388    246.62914   -3054.3047   -2613.3372    522.57742    12308.019 
   41700     302.3317    246.83415   -3061.1382   -2611.4427    271.76127    12310.224 
   41750    296.55785    246.57321   -3052.4405   -2611.3332    511.77038    12312.466 
   41800    304.28336     246.8835   -3062.7835   -2610.1851    178.02148    12314.802 
   41850    312.69238    247.22514   -3074.1712    -2609.065   -211.68971    12317.084 
   41900    307.50387    247.09865   -3069.9551   -2612.5664   -57.035297     12319.12 
   41950    304.05653    247.01031   -3067.0104   -2614.7493    44.499767    12320.952 
   42000      295.094    246.80341   -3060.1135   -2621.1836    226.76673    12322.659 
   42050    300.34014    247.05061   -3068.3538   -2621.6206   -83.122173    12324.307 
   42100    301.07751     247.0311   -3067.7035   -2619.8735   -303.26381    12325.776 
   42150    310.52444    247.42468   -3080.8228   -2618.9413    -655.2115    12326.888 
   42200    286.83079    246.63262   -3054.4207   -2627.7816    115.34534    12327.544 
   42250    288.34694    246.73916    -3057.972   -2629.0778    83.341217    12328.059 
   42300    304.67452    247.50934   -3083.6447   -2630.4644   -462.50584    12328.427 
   42350    285.07651    246.81601   -3060.5336   -2636.5039    184.33845    12328.456 
   42400    288.07334    246.89434   -3063.1448   -2634.6576     150.0936    12328.386 
   42450    285.65043    246.82207   -3060.7355   -2635.8521    183.37179    12328.279 
   42500     298.6315       247.35   -3078.3334   -2634.1416   -336.98239    12328.082 
   42550    287.74872    247.01974   -3067.3247   -2639.3203   -32.335137    12327.577 
   42600    294.41561    247.18945   -3072.9815   -2635.0606    -172.2726    12326.865 
   42650    299.59866    247.36334    -3078.778   -2633.1477   -390.45288    12325.916 
   42700    292.77186    247.08266    -3069.422    -2633.946   -187.17984    12324.622 
   42750     296.6637    247.23808   -3074.6027    -2633.338   -291.52224    12323.028 
   42800    288.48065    247.05058   -3068.3526   -2639.2595   -63.000918    12321.125 
   42850    283.50577    246.95388   -3065.1293    -2643.436    36.487858    12319.026 
   42900    289.56619    247.20895   -3073.6315   -2642.9238   -165.52825    12316.763 
   42950     286.7068    247.23626   -3074.5421   -2648.0875   -119.89948    12314.256 
   43000    282.45709    247.07166   -3069.0554   -2648.9219  -0.21936095     12311.52 
   43050    286.95076     242.1504   -3071.6799   -2644.8624   -110.42025    12308.602 
   43100    289.58427     242.2668   -3075.5601   -2644.8255   -212.40143    12305.451 
   43150    298.70556    242.56039   -3085.3463   -2641.0444   -445.38815    12301.988 
   43200     294.6016    242.39651   -3079.8836   -2641.6861   -238.22785    12298.132 
   43250    285.80334    242.09723   -3069.9077   -2644.7969    120.05686    12293.963 
   43300    302.23094    242.74908   -3091.6361   -2642.0905   -277.30645    12289.613 
   43350    293.93992    242.53684   -3084.5614    -2647.348    39.756165    12284.968 
   43400      289.376    242.47352   -3082.4507   -2652.0258    240.96647    12280.136 
   43450     284.0012    242.29941    -3076.647   -2654.2167    449.98866    12275.273 
   43500    288.57413    242.42595    -3080.865   -2651.6329    448.88901    12270.472 
   43550    283.26822    242.22148   -3074.0494   -2652.7094    727.97115    12265.753 
   43600    275.28161     241.8545   -3061.8168   -2652.3563    958.85937    12261.262 
   43650    284.95048    242.25784   -3075.2615   -2651.4192    516.01941    12257.091 
   43700    307.60293    243.15276   -3105.0919   -2647.5559   -179.20414    12253.004 
   43750    292.66589    242.56451   -3085.4837   -2650.1654    426.26047    12248.721 
   43800    295.07034    242.63744   -3087.9148     -2649.02     410.5659    12244.431 
   43850    283.01861    242.06932   -3068.9773   -2648.0085    777.23657    12240.226 
   43900    306.60201    242.86734   -3095.5779   -2639.5306    90.724591     12236.19 
   43950    297.42236    242.43257   -3081.0857   -2638.6924    460.25889    12232.086 
   44000    292.93353     242.2896     -3076.32   -2640.6036    611.42588    12228.029 
[...]
   89400    281.95299    229.13493   -3137.8311   -2718.4474    85.041147     12114.82 
   89450    289.65686    229.40849   -3146.9498   -2716.1072   -199.67198    12112.485 
   89500    302.11654    229.73345   -3157.7817   -2708.4062   -597.73367    12109.836 
   89550    296.89376    229.62077   -3154.0257   -2712.4187   -378.76399    12106.695 
   89600    281.94853    229.17955   -3139.3182   -2719.9411     169.6058    12103.153 
   89650    271.51978    228.90104   -3130.0348   -2726.1697    443.93618    12099.497 
   89700    277.94408    229.17237   -3139.0789   -2725.6582    251.85648    12095.869 
   89750    302.15433    229.88625   -3162.8752   -2713.4435   -328.16601    12092.154 
   89800    293.48175    229.54303   -3151.4344   -2714.9026   -31.787709    12088.127 
   89850    301.21894    229.79049   -3159.6832   -2711.6428   -233.13953    12083.839 
   89900    283.37801    229.27769   -3142.5896   -2721.0863     352.8844    12079.266 
   89950    276.82419    228.99279   -3133.0928   -2721.3378    681.24637    12074.677 
   90000    298.45615    229.75146   -3158.3818   -2714.4509    64.537795    12070.209 
   90050    291.10519    229.53031   -3151.0103   -2718.0134    303.29948    12065.625 
   90100    288.47805    229.32562   -3144.1875   -2715.0982    517.98392    12060.993 
   90150    289.86014    229.36863   -3145.6211   -2714.4761    541.89123    12056.427 
   90200    288.16087    229.27516   -3142.5055    -2713.888    658.87308    12051.966 
   90250    299.13539    229.55903   -3151.9677   -2707.0265    383.85897    12047.638 
   90300    292.40599    229.24772   -3141.5907   -2706.6589    706.77708    12043.342 
   90350    291.46443    229.26626   -3142.2087   -2708.6775    791.69455    12039.213 
   90400    311.20447    229.82474   -3160.8246   -2697.9316    230.69748     12035.27 
   90450    309.64483      229.825   -3160.8333   -2700.2601    351.11864    12031.253 
   90500    302.19025    229.57794   -3152.5981    -2703.113    689.65226    12027.204 
   90550    293.59904    229.15091   -3138.3636   -2701.6572    1092.7489    12023.328 
   90600    304.50374    229.49804   -3149.9347   -2697.0085    916.93679    12019.797 
   90650    293.66157    228.99298   -3133.0993      -2696.3    1424.7164     12016.59 
   90700    302.62572     229.2106   -3140.3532   -2690.2204     1234.667    12013.884 
   90750    312.26107    229.52959   -3150.9863   -2686.5216      970.919    12011.615 
   90800    291.26796    228.73255   -3124.4184   -2691.1794    1641.8545    12009.701 
   90850     302.9926    229.09524    -3136.508   -2685.8295    1351.1838    12008.378 
   90900    305.03811    229.17589   -3139.1965   -2685.4754    1333.5351    12007.586 
   90950    310.90599    229.28977   -3142.9922   -2680.5431    1203.1783    12007.271 
   91000    321.11689    229.66562   -3155.5208   -2677.8837    906.15837    12007.362 
   91050    311.29053    229.30628   -3143.5428   -2680.5217    1276.2767    12007.756 
   91100    310.39474    229.23667   -3141.2225   -2679.5338    1389.8941    12008.563 
   91150    306.24697    229.05212   -3135.0708   -2679.5516     1530.532    12009.905 
   91200    321.24984    229.57745   -3152.5816   -2674.7469    1100.2591      12011.8 
   91250    305.56647    229.07995   -3135.9984   -2681.4915    1555.0187    12014.102 
   91300    292.44347    228.67841   -3122.6136   -2687.6261    1851.8485    12017.014 
   91350     310.0531    229.12166   -3137.3887   -2676.2082    1314.5371    12020.641 
   91400    317.99995    229.33985   -3144.6618    -2671.661    1106.7383    12024.761 
   91450    313.68264    229.22626   -3140.8754   -2674.2962    1182.7403    12029.269 
   91500    318.98027    229.36822   -3145.6074   -2671.1484    992.64472    12034.159 
   91550    305.27583    228.91386    -3130.462   -2676.3873     1320.889    12039.374 
   91600    303.19362    228.78694   -3126.2312   -2675.2537    1313.4146    12045.056 
   91650    319.47496    229.28591   -3142.8638    -2667.669    785.88074    12051.185 
   91700    304.53163    228.79861   -3126.6205   -2673.6528    1103.7462    12057.578 
   91750    307.62116    228.87592   -3129.1972    -2671.634    999.05227    12064.302 
   91800     298.8383    228.61809    -3120.603   -2676.1036    1201.5874    12071.367 
   91850    307.20619    228.81347   -3127.1157   -2670.1697    953.30848    12078.841 
   91900    310.11746    228.91449    -3130.483   -2669.2068    761.38517    12086.617 
   91950    323.35009    229.38008   -3146.0026   -2665.0438    287.31766    12094.543 
   92000     297.4789    228.55288   -3118.4293    -2675.952    958.47324    12102.475 
   92050    301.19813    223.69158   -3123.0528   -2675.0434    730.49974    12110.648 
   92100     308.9996    223.84281   -3128.0937   -2668.4802    302.33022    12118.984 
   92150    328.39263    224.43248   -3147.7493   -2659.2901   -348.62381    12127.217 
   92200    311.19525    223.98335   -3132.7783   -2669.8989    76.763171    12135.078 
   92250    303.97447    223.81123    -3127.041    -2674.902    156.96886    12142.713 
   92300    301.36911    223.67524    -3122.508   -2674.2442    25.851111    12150.181 
   92350    301.04846    223.69028   -3123.0093   -2675.2225     -64.8918    12157.426 
   92400    292.35748     223.3363   -3111.2101   -2676.3505    155.15169    12164.428 
   92450    299.42234    223.63579   -3121.1931   -2675.8251   -173.66516    12171.243 
   92500    308.70101    223.92594   -3130.8647   -2671.6953   -531.00721    12177.724 
   92550     308.0159    223.86622   -3128.8739   -2670.7236   -504.11755    12183.698 
   92600    282.46415    223.03248   -3101.0825   -2680.9385    175.52483    12189.214 
   92650     299.5498    223.64196   -3121.3987   -2675.8411   -367.79123     12194.51 
   92700    299.42842    223.60075   -3120.0248   -2674.6478   -495.71396    12199.415 
   92750    304.88126    223.84419   -3128.1395   -2674.6518   -799.50204    12203.799 
   92800    298.02306    223.71883   -3123.9609   -2680.6742   -572.14547    12207.542 
   92850    278.96084    223.12917   -3104.3057   -2689.3726   -15.885637    12210.763 
   92900    277.27483    222.96088   -3098.6961   -2686.2708   -28.954467    12213.723 
   92950    295.75338    223.57775   -3119.2584   -2679.3477   -736.43546    12216.412 
   93000    305.53737    223.89107   -3129.7022   -2675.2385   -1044.1323     12218.49 
   93050    290.96149    223.45044   -3115.0147   -2682.2316    -579.8108    12219.817 
   93100    303.48112    223.93162   -3131.0541   -2679.6489   -935.81233    12220.541 
   93150    292.95299    223.48938   -3116.3128   -2680.5674   -543.28125    12220.572 
   93200    287.69294    223.39231   -3113.0772   -2685.1557   -402.10674    12220.063 
   93250    294.84901    223.61675   -3120.5585   -2681.9929    -623.3305    12219.093 
   93300     300.1084    223.76342   -3125.4473   -2679.0588   -771.22158    12217.565 
   93350    304.96942    223.98219   -3132.7396   -2679.1207   -963.15885    12215.381 
   93400    304.56156    224.01681   -3133.8938   -2680.8815   -1022.3524    12212.443 
   93450     298.3349    223.84467   -3128.1558   -2684.4052   -849.62937    12208.732 
   93500    301.15109    224.05117   -3135.0392   -2687.0997    -891.4735    12204.315 
   93550    284.72083    223.47994    -3115.998   -2692.4974   -329.75533    12199.241 
   93600    291.28903    223.71005   -3123.6684    -2690.398   -436.37522    12193.713 
   93650     282.9867    223.49697   -3116.5658   -2695.6446   -223.25851    12187.765 
   93700    295.97445    223.88724   -3129.5748   -2689.3352   -456.37918    12181.454 
   93750    282.58384    223.51494   -3117.1645   -2696.8425   -9.3807329    12174.728 
   93800    295.70489    224.03798   -3134.5992   -2694.7606   -404.18542    12167.724 
   93850    292.01431     223.9008   -3130.0267   -2695.6775    -312.6958    12160.332 
   93900    302.78192    224.33186   -3144.3952     -2694.03   -579.71294    12152.529 
   93950    294.48672     224.0675   -3135.5832   -2697.5565    -285.7679    12144.227 
   94000    290.58317    223.94173    -3131.391   -2699.1705   -62.089278    12135.553 
   94050    299.51267    224.34027   -3144.6757   -2699.1733   -205.94597    12126.617 
   94100    288.62092    224.07956   -3135.9854   -2706.6837    114.37265    12117.395 
   94150    297.93856    224.37421   -3145.8069   -2702.6459   -89.781974    12108.003 
   94200    296.04883    224.43736   -3147.9121   -2707.5619   -14.735006    12098.373 
   94250    286.95728    224.22236   -3140.7454   -2713.9181    351.71229    12088.547 
   94300    273.52378    223.80323   -3126.7743   -2719.9284    798.19145    12078.748 
   94350    294.14676    224.53029   -3151.0098   -2713.4888     154.9723    12069.117 
   94400    298.05555    224.60598   -3153.5326   -2710.1975    111.45127    12059.399 
   94450    287.00001    224.26554   -3142.1848    -2715.294    571.88592    12049.569 
   94500    283.51349    224.21804   -3140.6015   -2718.8966    769.16458    12039.843 
   94550    289.03614    224.44436   -3148.1455   -2718.2262    717.62921    12030.333 
   94600    302.02031    224.96128    -3165.376   -2716.1436    377.93074    12020.998 
   94650    297.84698     224.8263   -3160.8765   -2717.8517    504.35966      12011.7 
   94700    297.60011    224.90165   -3163.3882   -2720.7306    587.16648    12002.457 
   94750    285.24077    224.59118   -3153.0393   -2728.7653    1097.7894    11993.373 
   94800    284.48227    224.62558   -3154.1861   -2731.0403    1269.3047    11984.672 
   94850    293.56464    224.91985    -3163.995   -2727.3399    1034.3679    11976.422 
   94900    293.10466    225.05686   -3168.5621   -2732.5912    1036.9525    11968.543 
   94950    289.27612    224.90497   -3163.4989   -2733.2226    1191.0868    11961.038 
   95000    302.59286    225.37868   -3179.2893   -2729.2053    804.83614    11953.923 
   95050    284.71482    219.81122   -3160.3741   -2736.8824    1331.9641    11947.084 
   95100    304.13012    220.51875   -3183.9583   -2731.5878     821.5469    11940.668 
   95150    300.00409    220.34247   -3178.0824    -2731.849    1035.7212    11934.511 
   95200    301.31493     220.3905   -3179.6833   -2731.5002    1027.0795    11928.663 
   95250    306.35555    220.61032   -3187.0107   -2731.3301    882.15011    11923.118 
   95300     292.9962    220.15437   -3171.8124   -2736.0028      1373.81    11917.854 
   95350    309.84462    220.73667   -3191.2223   -2730.3519    898.17686    11913.026 
   95400    300.11148    220.40558    -3180.186   -2733.7929    1295.9297    11908.484 
   95450    287.62699    220.05718   -3168.5726   -2740.7492    1693.9386    11904.403 
   95500    310.24643    220.82734   -3194.2448   -2732.7767    985.53072    11900.936 
   95550    298.70558    220.45649   -3181.8829    -2737.581    1414.6359    11897.812 
   95600    294.56613    220.41712   -3180.5707   -2742.4259    1569.3001    11895.168 
   95650    291.00637     220.2979   -3176.5966   -2743.7466    1620.3061    11893.117 
   95700    297.52411    220.63008   -3187.6694   -2745.1248    1419.1118    11891.662 
   95750    297.86044    220.59435   -3186.4782   -2743.4334    1504.1124    11890.728 
   95800    288.50591    220.29467    -3176.489   -2747.3583    1752.2502    11890.362 
   95850    285.23786    220.33953   -3177.9842   -2753.7145    1695.1986    11890.662 
   95900    295.03376    220.60921   -3186.9735   -2748.1332    1385.3393    11891.615 
   95950    317.05646    221.30605   -3210.2017   -2738.6042      708.208    11893.027 
   96000    294.06684    220.62803   -3187.6009   -2750.1988    1353.3795    11894.617 
   96050     292.0852    220.58461   -3186.1535   -2751.6989    1423.4459    11896.642 
   96100    295.53373    220.69883   -3189.9609   -2750.3769    1277.3486    11899.158 
   96150    287.87773    220.50725   -3183.5749   -2755.3786     1391.267    11902.115 
   96200    294.49789    220.68022   -3189.3408   -2751.2975    1084.8691    11905.531 
   96250    292.61691    220.60088   -3186.6962   -2751.4507    1026.1737    11909.281 
   96300    282.60166    220.21056   -3173.6854   -2753.3369    1247.3393     11913.34 
   96350    296.71273    220.64478   -3188.1594   -2746.8217     768.1413    11917.767 
   96400       291.34    220.58074   -3186.0247   -2752.6786    821.82939    11922.394 
   96450    284.01982    220.40481   -3180.1602   -2757.7022    929.20744    11927.207 
   96500    283.34005    220.30221   -3176.7405   -2755.2936    842.40227     11932.25 
   96550    282.86119    220.35764   -3178.5879   -2757.8533    734.56332    11937.497 
   96600    295.84668     220.7569   -3191.8967   -2751.8472    397.06946    11942.886 
   96650    281.78169     220.1892   -3172.9733   -2753.8444    902.78977      11948.3 
   96700    279.87513    220.14887   -3171.6291   -2755.3361    887.64015    11953.928 
   96750    291.92431    220.47455   -3182.4851   -2748.2698    445.23622    11959.758 
   96800    278.84916    220.08565   -3169.5217   -2754.7547    733.54258     11965.63 
   96850    289.27336     220.3525   -3178.4167   -2748.1445    472.36449    11971.612 
   96900    285.92513    220.20041    -3173.347    -2748.055    577.52638     11977.62 
   96950    281.02994    220.05408   -3168.4693   -2750.4585      696.885    11983.694 
   97000    285.12895    220.15447   -3171.8158   -2747.7081    479.51269    11989.867 
   97050    290.16216    220.38297   -3179.4324   -2747.8382    170.85914    11996.043 
   97100    282.96838    220.06021   -3168.6738   -2747.7797    460.63098    12002.101 
   97150    279.47495    219.92651    -3164.217   -2748.5192    588.57133    12008.149 
   97200    302.94928    220.62816   -3187.6054   -2736.9913   -116.17129    12014.216 
   97250    289.41721    220.13451   -3171.1504   -2740.6642    211.45264    12020.028 
   97300    286.87404     220.0114   -3167.0466   -2740.3432    167.09452    12025.671 
   97350    283.52053    219.80394   -3160.1314   -2738.4161    199.64343    12031.161 
   97400    280.01121    219.67456   -3155.8186   -2739.3231    326.04044    12036.513 
   97450    276.12153    219.42518    -3147.506   -2736.7962    471.89927    12041.819 
   97500    289.15344    219.71343   -3157.1145   -2727.0206    205.57926    12047.099 
   97550    292.99704    219.80902   -3160.3007   -2724.4898    105.38833    12052.274 
   97600    306.42313    220.08681   -3169.5602    -2713.779   -239.55799    12057.243 
   97650    296.31708    219.78843   -3159.6144   -2718.8652     62.53503    12061.853 
   97700     291.2396    219.45262   -3148.4207   -2715.2238    279.89232    12066.238 
   97750    302.24378    219.72893    -3157.631   -2708.0663    23.885083    12070.493 
   97800    301.53073      219.631   -3154.3665   -2705.8624    54.055158     12074.53 
   97850    295.35426     219.4098   -3146.9934   -2707.6763    185.35435    12078.347 
   97900    287.68411    219.18645   -3139.5484   -2711.6401    420.25707    12082.022 
   97950    299.99206    219.44151   -3148.0502   -2701.8348    141.82649    12085.645 
   98000    289.72128    219.03511   -3134.5035   -2703.5651    369.78678    12089.132 
   98050    286.64399    224.01571   -3133.8571   -2707.4959    343.21104    12092.578 
   98100    303.29179    224.50836   -3150.2788   -2699.1552   -156.65163    12095.961 
   98150     294.4936    224.11198    -3137.066   -2699.0291    144.69941    12099.064 
   98200    304.31531    224.46633   -3148.8776   -2696.2316     -133.688    12101.967 
   98250    304.78574    224.41982   -3147.3275   -2693.9818   -157.55679    12104.573 
   98300    298.18183     224.1257   -3137.5234   -2694.0005    61.643642    12106.868 
   98350    301.45386    224.19805    -3139.935   -2691.5452    7.8143809    12108.956 
   98400    306.67151      224.388   -3146.2666    -2690.116   -8.8707079    12110.809 
   98450    294.99786    223.98146   -3132.7152   -2693.9282    307.47797    12112.446 
   98500    306.88404    224.32958   -3144.3194   -2687.8527   -133.80137     12113.96 
   98550    292.94546    223.89305   -3129.7684   -2694.0342    254.63982    12115.233 
   98600    295.70396    223.95015   -3131.6717   -2691.8345    314.04889     12116.39 
   98650    289.36703    223.72372   -3124.1239   -2693.7123    530.73054    12117.509 
   98700    290.41297    223.71866   -3123.9554   -2691.9881     545.1767    12118.667 
   98750    300.34676    224.15475   -3138.4916   -2691.7486    147.05642    12119.873 
   98800    299.62787    224.11293   -3137.0978    -2691.424    59.691317    12120.962 
   98850    293.53096    223.82171   -3127.3905   -2690.7854    370.10401    12121.863 
   98900    291.75682    223.77277   -3125.7589   -2691.7928    529.40411    12122.718 
   98950    298.99384    224.07421   -3135.8071   -2691.0764    212.80371    12123.598 
   99000    307.21624    224.25423   -3141.8076   -2684.8468    -68.68973    12124.369 
   99050    292.22037    228.74487   -3124.8289   -2690.1733    439.14836    12124.925 
   99100    297.32964    228.89629   -3129.8764   -2687.6211    347.35156    12125.463 
   99150    300.05298    229.00889   -3133.6297   -2687.3236    271.31939    12125.966 
   99200    295.91623    228.75815   -3125.2717   -2685.1188    385.53376    12126.423 
   99250    301.66748    228.88245   -3129.4149   -2680.7074    206.78171     12126.86 
   99300    297.31368    228.73434    -3124.478   -2682.2464    355.43985    12127.206 
   99350    306.67629    229.07258   -3135.7525   -2679.5948    47.843106    12127.492 
   99400    305.65024    228.99448   -3133.1494   -2678.5178    90.469156    12127.609 
   99450    294.99562     228.6255   -3120.8501   -2682.0664    434.83994    12127.572 
   99500    289.73679    228.47953   -3115.9842   -2685.0227    513.11709     12127.56 
   99550     308.1324    229.07305   -3135.7682   -2677.4446    60.381861    12127.565 
   99600    287.14181    228.37485    -3112.495   -2685.3933    755.01998    12127.459 
   99650    304.44329    228.97002   -3132.3338   -2679.4975    175.76003    12127.481 
   99700    312.23036    229.23696   -3141.2321   -2676.8131   -111.61356    12127.397 
   99750    305.06004    228.96093   -3132.0311   -2678.2774    159.76094    12127.074 
   99800    303.58058    228.87573    -3129.191   -2677.6379    203.16618     12126.61 
   99850    305.92272    228.91763   -3130.5876   -2675.5507    190.23768    12126.031 
   99900    298.88113    228.67233   -3122.4112   -2677.8481    478.15352    12125.375 
   99950    305.11113    228.85113    -3128.371   -2674.5414    340.40779    12124.718 
  100000    318.43359    229.26449   -3142.1496   -2668.5038   -20.556338    12124.013 
Loop time of 27.3219 on 1 procs for 100000 steps with 500 atoms

Performance: 316.230 ns/day, 0.076 hours/ns, 3660.069 timesteps/s
99.8% CPU use with 1 MPI tasks x 1 OpenMP threads

MPI task timing breakdown:
Section |  min time  |  avg time  |  max time  |%varavg| %total
---------------------------------------------------------------
Pair    | 21.996     | 21.996     | 21.996     |   0.0 | 80.51
Bond    | 0.0068798  | 0.0068798  | 0.0068798  |   0.0 |  0.03
Neigh   | 0.53098    | 0.53098    | 0.53098    |   0.0 |  1.94
Comm    | 0.77329    | 0.77329    | 0.77329    |   0.0 |  2.83
Output  | 0.018476   | 0.018476   | 0.018476   |   0.0 |  0.07
Modify  | 2.7618     | 2.7618     | 2.7618     |   0.0 | 10.11
Other   |            | 1.235      |            |       |  4.52

Nlocal:    500 ave 500 max 500 min
Histogram: 1 0 0 0 0 0 0 0 0 0
Nghost:    1600 ave 1600 max 1600 min
Histogram: 1 0 0 0 0 0 0 0 0 0
Neighs:    14483 ave 14483 max 14483 min
Histogram: 1 0 0 0 0 0 0 0 0 0

Total # of neighbors = 14483
Ave neighs/atom = 28.966
Ave special neighs/atom = 0
Neighbor list builds = 637
Dangerous builds = 0

write_data      ${walker}/final_restart_file
write_data      11/final_restart_file

quit
