LAMMPS (19 May 2017)
Processor partition = 11
  using 1 OpenMP thread(s) per MPI task
# gREM variables
variable        lambda world 1000 1005 1010 1015 1020 1025 1030 1035 1040 1045 1050 1055 1060 1065 1070 1075
variable        walker world 0 1 2 3 4 5 6 7 8 9 10 11 12 13 14 15
variable        replica world 0 1 2 3 4 5 6 7 8 9 10 11 12 13 14 15

variable        T0 equal 300.0
variable        press equal 0.0

units           real
atom_style      full
pair_style      lj/cut 5.0

# LJ particles
read_data       init_restart_file
  orthogonal box = (1.27034 1.27034 1.27034) to (23.7297 23.7297 23.7297)
  1 by 1 by 1 MPI processor grid
  reading atoms ...
  500 atoms
  reading velocities ...
  500 velocities
  0 = max # of 1-2 neighbors
  0 = max # of 1-3 neighbors
  0 = max # of 1-4 neighbors
  1 = max # of special neighbors

#dump            dump all xyz 1000 ${rep}/dump.xyz

fix             fxnpt all npt temp ${T0} ${T0} 1000.0 iso ${press} ${press} 10000.0
fix             fxnpt all npt temp 300 ${T0} 1000.0 iso ${press} ${press} 10000.0
fix             fxnpt all npt temp 300 300 1000.0 iso ${press} ${press} 10000.0
fix             fxnpt all npt temp 300 300 1000.0 iso 0 ${press} 10000.0
fix             fxnpt all npt temp 300 300 1000.0 iso 0 0 10000.0
fix             fxgREM all grem ${lambda} -.03 -30000 fxnpt
fix             fxgREM all grem 1055 -.03 -30000 fxnpt
thermo_modify   press fxgREM_press

thermo          50
thermo_style    custom step temp f_fxgREM pe etotal press vol
WARNING: New thermo_style command, previous thermo_modify settings will be lost (../output.cpp:705)
timestep        1.0

temper/grem     100000 1000 ${lambda} fxgREM fxnpt 10294 98392 #${walker}
temper/grem     100000 1000 1055 fxgREM fxnpt 10294 98392 
Neighbor list info ...
  update every 1 steps, delay 10 steps, check yes
  max neighbors/atom: 2000, page size: 100000
  master list distance cutoff = 7
  ghost atom cutoff = 7
  binsize = 3.5, bins = 7 7 7
  1 neighbor lists, perpetual/occasional/extra = 1 0 0
  (1) pair lj/cut, perpetual
      attributes: half, newton on
      pair build: half/bin/newton
      stencil: half/bin/3d/newton
      bin: standard
Per MPI rank memory allocation (min/avg/max) = 5.728 | 5.728 | 5.728 Mbytes
Step Temp f_fxgREM PotEng TotEng Press Volume 
       0    299.42262      257.507      -3416.9   -2971.5315    1317.0315    11328.967 
      50    222.67979    254.73681   -3324.5602   -2993.3409    4067.8489    11329.344 
     100    188.34949    253.58826   -3286.2752   -3006.1196    5301.8173    11331.447 
     150    200.12457    253.97555    -3299.185   -3001.5149      4801.27    11335.912 
     200    209.16029    254.28508   -3309.5026   -2998.3925    4459.3752     11342.56 
     250    217.23651     254.5155   -3317.1834   -2994.0606    4115.6993    11351.223 
     300    216.68559    254.42663   -3314.2209   -2991.9175    4052.1345    11361.762 
     350    211.15876     254.1918   -3306.3934   -2992.3108    4093.6232    11374.145 
     400    215.91317    254.24754   -3308.2514   -2987.0969    3743.4583    11388.376 
     450    220.78799    254.31972   -3310.6575   -2982.2521    3429.8117    11404.303 
     500    212.45503    254.02732   -3300.9106   -2984.8998    3486.9976    11421.799 
     550    214.91956    253.96012   -3298.6706   -2978.9941    3254.8145    11440.865 
     600    221.50591     254.2207   -3307.3568   -2977.8835    2782.6683    11461.387 
     650    220.78118      254.134   -3304.4667   -2976.0714    2502.1393    11483.162 
     700    215.01456    253.78267   -3292.7557   -2972.9378    2477.8709    11506.037 
     750    211.73008     253.5946   -3286.4867   -2971.5542    2320.3912    11529.987 
     800     213.1188    253.59898   -3286.6327   -2969.6347     1960.603    11554.917 
     850    214.92562    253.56473   -3285.4911   -2965.8055    1584.9086    11580.639 
     900    209.84182     253.2905   -3276.3501   -2964.2263    1482.6723     11606.98 
     950    209.77446    253.14035   -3271.3451   -2959.3214    1243.4656    11633.851 
    1000    219.78386    253.43596   -3281.1988    -2954.287    631.77451    11661.078 
    1050    216.71056    248.20505   -3273.5018   -2951.1613    493.61905    11688.382 
    1100    217.89514    248.19963   -3273.3209   -2949.2184    179.51764    11715.624 
    1150    209.30405    247.79295   -3259.7651   -2948.4412    209.74547    11742.662 
    1200    207.16492    247.60176   -3253.3921     -2945.25    63.870262    11769.455 
    1250    209.05517    247.56263   -3252.0876   -2941.1338   -221.83185    11795.913 
    1300    216.46544     247.6548     -3255.16    -2933.184   -642.10114    11821.875 
    1350    223.90553    247.84159   -3261.3863   -2928.3438   -1052.1174    11847.101 
    1400    215.52976    247.44111   -3248.0369   -2927.4527   -1046.5912    11871.404 
    1450    222.92062    247.62371   -3254.1235    -2922.546   -1509.3837    11894.723 
    1500    214.20316    247.13195   -3237.7318   -2919.1208   -1312.8612    11916.885 
    1550    214.43232    246.93873   -3231.2911   -2912.3393    -1418.036    11937.923 
    1600    206.05078    246.55866   -3218.6219    -2912.137   -1321.1229    11957.824 
    1650    200.63986    246.23779   -3207.9263   -2909.4897   -1197.0339    11976.629 
    1700    209.09438    246.37841   -3212.6138   -2901.6017   -1534.9621    11994.388 
    1750    221.70095    246.73337   -3224.4457   -2894.6823   -2067.9654    12010.935 
    1800     210.1398     246.1949   -3206.4966   -2893.9296   -1781.9604    12026.065 
    1850    223.73845    246.56861   -3218.9536   -2886.1596   -2247.9293    12039.845 
    1900    225.33041    246.51272   -3217.0905   -2881.9286   -2285.8062    12052.125 
    1950    219.39772     246.1863   -3206.2101   -2879.8727   -2063.2301    12062.882 
    2000    221.83213    246.25605   -3208.5352   -2878.5767   -2170.2108    12072.231 
    2050    215.61281    250.86907   -3195.6355   -2874.9278   -1938.7491    12080.184 
    2100    217.91577    250.85106   -3195.0354   -2870.9022   -1991.2586    12086.851 
    2150    225.44539    250.97335   -3199.1117   -2863.7788   -2190.2684    12092.238 
    2200    227.60805    250.97295   -3199.0985   -2860.5487   -2167.3414     12096.26 
    2250    217.79622    250.47492   -3182.4972   -2858.5418   -1744.5557    12098.969 
    2300    212.70913    250.21675   -3173.8918   -2857.5031   -1528.6837    12100.582 
    2350    225.90409    250.48723   -3182.9076   -2846.8924   -1759.9277    12101.226 
    2400    226.69836     250.3988     -3179.96   -2842.7634   -1659.4969    12100.835 
    2450    225.01168    250.25106   -3175.0352   -2840.3474   -1483.1949    12099.445 
    2500    233.40433    250.41591   -3180.5304   -2833.3592   -1608.7174    12097.161 
    2550    235.47216    250.36249   -3178.7496   -2828.5026   -1511.0486    12093.963 
    2600    226.57483    250.01063    -3167.021   -2830.0081   -1035.3116    12089.917 
    2650    227.77955     250.0408   -3168.0265   -2829.2217   -952.36368    12085.256 
    2700    239.79748    250.31596   -3177.1986   -2820.5181   -1182.3969    12080.043 
    2750    240.20762    250.18846   -3172.9488   -2815.6582   -1026.5128    12074.192 
    2800    239.19698    250.12854   -3170.9512   -2815.1638   -856.42461    12067.774 
    2850    240.81376    250.02813   -3167.6043   -2809.4121   -707.85241      12060.9 
    2900    241.33446    249.96127   -3165.3755   -2806.4088   -524.35044    12053.654 
    2950    243.93359    249.99511   -3166.5038   -2803.6711   -452.09876    12046.126 
    3000    248.80755    250.06493   -3168.8311   -2798.7488   -444.22924    12038.362 
    3050     249.7441    244.95759   -3165.2531   -2793.7777   -257.51614    12030.373 
    3100     262.7537    245.36076   -3178.6921   -2787.8659   -483.65916    12022.216 
    3150    268.15952    245.50412   -3183.4707   -2784.6037   -444.15078    12013.809 
    3200    257.00982    245.02347   -3167.4492   -2785.1665      194.094    12005.194 
    3250    269.71928    245.42165   -3180.7215   -2779.5345    31.724813    11996.643 
    3300    269.43834    245.33203   -3177.7343   -2776.9652    208.39392    11988.131 
    3350    261.05332    244.87543   -3162.5143   -2774.2173    720.79743     11979.73 
    3400    272.14723    245.12794   -3170.9313   -2766.1329    703.34415    11971.654 
    3450    264.08029     244.7964   -3159.8799   -2767.0805    1186.0216    11963.958 
    3500    265.41446    244.74576    -3158.192   -2763.4081     1411.921    11956.835 
    3550    275.93361    244.99246   -3166.4152   -2755.9849    1209.7991    11950.393 
    3600    273.90968    244.80201   -3160.0669    -2752.647    1303.5949    11944.555 
    3650    276.71898    244.90024   -3163.3414   -2751.7429    1316.3637    11939.324 
    3700    284.98012    245.11352   -3170.4507   -2746.5643    1219.4975    11934.691 
    3750     270.1261    244.45283   -3148.4276   -2746.6355    1863.4077    11930.647 
    3800    284.10764    244.94261   -3164.7536    -2742.165    1560.0314    11927.425 
    3850     292.3281    245.03487   -3167.8291   -2733.0132     1394.411    11924.939 
    3900    290.61674    244.88916   -3162.9722   -2730.7018    1535.1956    11923.043 
    3950    290.13619    244.80251   -3160.0836    -2728.528    1672.9157    11921.817 
    4000    291.81461    244.76613   -3158.8711    -2724.819    1751.5319    11921.316 
    4050      285.578    249.43337    -3147.779   -2723.0034    2045.8489    11921.591 
    4100    297.99079     249.7326   -3157.7534   -2714.5147    1820.5965    11922.744 
    4150     292.2933     249.4701   -3149.0032   -2714.2391    2046.4583    11924.715 
    4200    297.36981    249.58908   -3152.9692   -2710.6541    1816.7747    11927.559 
    4250    302.44938    249.76887   -3158.9624   -2709.0919    1713.1992    11931.158 
    4300    287.07301    249.11631   -3137.2105   -2710.2111    2428.9406    11935.521 
    4350    283.62075    248.78047   -3126.0157   -2704.1513    2608.1186     11940.92 
    4400    298.30491     249.2504     -3141.68   -2697.9741    2087.0907    11947.425 
    4450    297.22192    249.22535   -3140.8451     -2698.75    1983.0738     11954.83 
    4500    302.91913    249.31597   -3143.8658   -2693.2966    1714.2361    11963.029 
    4550    299.54324    249.13018   -3137.6726   -2692.1247     1746.745    11971.909 
    4600    297.45991    248.97736   -3132.5785   -2690.1295    1810.5775    11981.473 
    4650     292.7332    248.82599   -3127.5329   -2692.1144    1912.6263    11991.737 
    4700     287.8967    248.48637   -3116.2124   -2687.9879    2069.4169    12002.748 
    4750    302.69714    248.96954   -3132.3182   -2682.0791    1505.8282    12014.549 
    4800    304.93829    248.89825   -3129.9416    -2676.369    1317.0588    12026.901 
    4850    303.19139    248.73714   -3124.5713    -2673.597    1331.4844    12039.676 
    4900    299.38355    248.57805   -3119.2682   -2673.9579    1416.2353    12052.882 
    4950    307.90201    248.91048   -3130.3493   -2672.3684    956.58778     12066.52 
    5000    304.75173    248.76743    -3125.581   -2672.2859    974.70838    12080.405 
    5050    295.44544    243.25258   -3108.4192   -2668.9665    1246.2812    12094.535 
    5100    302.50534    243.45303   -3115.1009   -2665.1471    881.93647    12108.984 
    5150    301.56375    243.20422   -3106.8073    -2658.254    876.87564      12123.6 
    5200    303.05958    243.30625   -3110.2085   -2659.4303    713.40392     12138.34 
    5250    303.06991    243.20427   -3106.8088   -2656.0153    689.31049    12153.156 
    5300    289.71115    242.57153   -3085.7177   -2654.7943    1086.2309    12168.036 
    5350    292.47618    242.62252   -3087.4173   -2652.3812    821.56162    12183.145 
    5400    307.81125    243.10098    -3103.366     -2645.52    193.54929    12198.358 
    5450    298.73447    242.67747   -3089.2491   -2644.9042     344.1424    12213.391 
    5500    299.14821    242.67447   -3089.1491   -2644.1889    161.33295    12228.271 
    5550    311.13439      243.077   -3102.5668    -2639.778   -302.85463    12242.893 
    5600    307.90479    242.89192   -3096.3974   -2638.4123   -184.23725    12257.049 
    5650    298.78237    242.49406   -3083.1353   -2638.7192    100.08706    12270.781 
    5700    303.70628    242.68834   -3089.6114   -2637.8713   -168.56095      12284.2 
    5750    303.42762    242.57894   -3085.9646    -2634.639   -326.82966    12297.218 
    5800    303.72392    242.46784   -3082.2612   -2630.4949   -381.35554    12309.748 
    5850    294.96817     242.0795   -3069.3166   -2630.5738   -114.78932    12321.784 
    5900    306.32837    242.34921   -3078.3071   -2622.6669   -493.31662    12333.403 
    5950    302.72122    242.18864   -3072.9548   -2622.6799   -451.98493    12344.468 
    6000    292.77933    241.76857   -3058.9524   -2623.4654   -53.737332    12354.989 
    6050     288.9718    236.55927   -3051.9757   -2622.1521    100.54697    12365.166 
    6100    296.04027    236.84131    -3061.377   -2621.0396   -236.14781    12375.071 
    6150    302.32717    236.92378    -3064.126   -2614.4372   -528.65226    12384.556 
    6200    301.36761    236.84493   -3061.4975    -2613.236   -551.31212     12393.47 
    6250    296.84877    236.60634   -3053.5446   -2612.0046   -448.88135    12401.782 
    6300    292.87568    236.38516    -3046.172   -2610.5417     -450.316    12409.564 
    6350    310.79948    236.95536   -3065.1786   -2602.8879    -1016.939    12416.789 
    6400    306.79968    236.83639   -3061.2129   -2604.8717    -905.3882    12423.208 
    6450     300.7974    236.63897   -3054.6325   -2607.2191   -724.35438    12428.852 
    6500    296.40862    236.46866   -3048.9554     -2608.07   -582.46115    12433.846 
    6550    306.89225    236.81333   -3060.4444   -2603.9655   -899.44085    12438.234 
    6600    303.00783    236.57003   -3052.3345   -2601.6333   -768.38884    12441.901 
    6650    303.02414     236.4782   -3049.2734    -2598.548   -771.30631    12444.889 
    6700    313.86801    236.84264   -3061.4214   -2594.5665    -1201.423    12447.179 
    6750    299.32567    236.35564    -3045.188   -2599.9637   -880.56018    12448.621 
    6800    299.53293    236.35421   -3045.1403   -2599.6078   -851.03787    12449.328 
    6850    307.35332    236.56531   -3052.1772   -2595.0124   -934.96398    12449.342 
    6900    302.71624    236.33947   -3044.6492   -2594.3817    -619.1511    12448.652 
    6950    299.98895    236.17453    -3039.151   -2592.9402   -465.62158    12447.415 
    7000    315.02863    236.71718   -3057.2395   -2588.6583   -950.07101    12445.691 
    7050    322.08617    231.91797   -3063.9324   -2584.8536    -1189.661    12443.241 
    7100    310.85601    231.46922   -3048.9742   -2586.5994   -810.60047    12439.956 
    7150    308.85706    231.40043   -3046.6808   -2587.2794   -639.69254    12435.997 
    7200    318.07412     231.7991   -3059.9701    -2586.859   -856.43589    12431.462 
    7250    301.88123    231.13181   -3037.7271   -2588.7017   -260.95859    12426.324 
    7300    302.99654    231.24259   -3041.4196   -2590.7352   -253.87315    12420.832 
    7350    310.52179    231.46396   -3048.7988   -2586.9211   -347.82451     12415.03 
    7400    304.12725    231.16845   -3038.9484   -2586.5821    -107.2251    12408.887 
    7450    330.98088    232.01149   -3067.0497   -2574.7407   -789.17571    12402.468 
    7500    322.68543    231.72769   -3057.5897   -2577.6196   -322.59917      12395.5 
    7550    310.78072    231.43728   -3047.9093   -2585.6465    166.68028    12388.167 
    7600    298.28671    231.00943   -3033.6475   -2589.9687    529.85811    12380.784 
    7650    312.60577    231.48085   -3049.3616   -2584.3842    96.540195    12373.487 
    7700    324.51805    231.79825   -3059.9416   -2577.2456   -201.45189    12366.107 
    7750    328.40281    231.91906   -3063.9685   -2575.4942   -197.40745    12358.467 
    7800    312.39822    231.38619   -3046.2063   -2581.5377    353.46996    12350.578 
    7850    321.16859    231.77546   -3059.1818   -2581.4679    139.55232    12342.686 
    7900    322.27183    231.89329   -3063.1095   -2583.7546    102.85491    12334.754 
    7950    333.48982    232.33024   -3077.6746   -2581.6338   -239.97319    12326.698 
    8000    321.03102     231.8853   -3062.8434   -2585.3341    147.15806    12318.381 
    8050    312.97698    236.63214   -3054.4045    -2588.875    531.88302    12309.981 
    8100    308.18378    236.44711   -3048.2369   -2589.8369    790.82417    12301.748 
    8150    330.85873    237.25695   -3075.2315   -2583.1042    154.57624     12293.76 
    8200    316.99566    236.72658   -3057.5527   -2586.0457    552.37409    12285.785 
    8250     330.1125    237.29676   -3076.5586   -2585.5413     230.1968      12277.9 
    8300    330.10075    237.27704   -3075.9012   -2584.9014    301.58284     12270.03 
    8350    330.76766     237.5272     -3084.24   -2592.2481    86.320669    12262.166 
    8400    320.60269    237.25828   -3075.2759   -2598.4037    445.43036    12254.243 
    8450    304.87276    236.79909   -3059.9696   -2606.4945    1030.2301    12246.436 
    8500    323.57584    237.54963   -3084.9875    -2603.693    468.70398    12238.962 
    8550    312.01087    237.17124   -3072.3748   -2608.2823    813.72445    12231.669 
    8600    312.62566     237.1799   -3072.6634   -2607.6565    850.55334    12224.659 
    8650    326.01806    237.70595   -3090.1984   -2605.2712    450.97647    12217.935 
    8700    324.11068    237.78038   -3092.6793   -2610.5893    450.72728    12211.335 
    8750    321.73573    237.73392   -3091.1307   -2612.5732    567.54526    12204.823 
    8800    313.46776    237.52297   -3084.0991   -2617.8396    826.97349    12198.477 
    8850    308.27433    237.50612   -3083.5374   -2625.0027    965.29278    12192.414 
    8900    310.57817    237.67476   -3089.1586   -2627.1971    885.38418    12186.703 
    8950     304.0972     237.6184   -3087.2799   -2634.9583    1083.5557     12181.34 
    9000    305.65315    237.67022   -3089.0074   -2634.3715     1041.926    12176.408 
    9050    306.82093    237.67718   -3089.2395   -2632.8666    996.78466    12171.884 
    9100    294.74969    237.39832    -3079.944   -2641.5262     1324.952    12167.771 
    9150    299.45885    237.65471   -3088.4904   -2643.0681    1149.7488    12164.178 
    9200    301.94859    237.85467   -3095.1557   -2646.0301    943.92478    12161.058 
    9250    316.04065    238.33862   -3111.2873   -2641.2008    570.70472    12158.259 
    9300    304.21638    237.98288   -3099.4293   -2646.9305    965.42055     12155.64 
    9350    313.68219    238.40514   -3113.5045   -2646.9261      552.577    12153.322 
    9400    306.24567    238.13581   -3104.5271   -2649.0099    736.46929    12151.157 
    9450    297.53612    237.96361   -3098.7871   -2656.2247    939.93118    12149.214 
    9500    304.26983    238.17466   -3105.8222   -2653.2439    661.38117    12147.602 
    9550     312.4648    238.58227    -3119.409   -2654.6413    376.56089    12146.159 
    9600    292.53862    238.01157   -3100.3856   -2665.2566     998.3568    12144.777 
    9650    298.41021    238.24367   -3108.1224   -2664.2598    789.81081    12143.714 
    9700    309.41191    238.68308   -3122.7694   -2662.5427    406.96649    12142.911 
    9750    303.75015    238.53533   -3117.8444    -2666.039    589.06565    12142.189 
    9800    307.03018    238.66161   -3122.0536   -2665.3694    417.46966    12141.582 
    9850     297.8779    238.42452   -3114.1507   -2671.0799    543.77562    12141.034 
    9900    297.34977    238.50333   -3116.7777   -2674.4924    524.84175    12140.584 
    9950    290.78439    238.24377   -3108.1258   -2675.6061    725.92723    12140.248 
   10000    298.31576    238.52839   -3117.6129   -2673.8908    425.72144    12140.102 
   10050    292.92018     238.5276   -3117.5867   -2681.8901    406.10732     12140.03 
   10100     287.5635    238.35488   -3111.8295   -2684.1006    453.07607    12140.009 
   10150    298.88991    238.77323   -3125.7744   -2681.1983    59.649996    12140.017 
   10200    289.85387    238.50314   -3116.7712   -2685.6355    317.73599    12139.911 
   10250     295.1105    238.83263   -3127.7545      -2688.8    122.90917    12139.777 
   10300    294.78927    238.86876   -3128.9586   -2690.4819    164.60886    12139.541 
   10350    289.23871    238.55144   -3118.3813   -2688.1606    452.41363    12139.229 
   10400    298.51057    238.93223   -3131.0744   -2687.0625    178.69941    12138.964 
   10450    298.99557    238.99319   -3133.1065   -2688.3732    133.08869    12138.633 
   10500    283.84884    238.58851   -3119.6171   -2697.4135    604.36162    12138.212 
   10550    286.60004     238.5863   -3119.5435   -2693.2476     558.7076    12137.925 
   10600    295.41983    238.82238   -3127.4127   -2687.9981    163.98552    12137.757 
   10650    292.74841    238.73617   -3124.5392   -2689.0981    108.65958    12137.513 
   10700    280.77645    238.33803   -3111.2677    -2693.634    479.90466    12137.167 
   10750    278.06591    238.26418    -3108.806    -2695.204      550.964    12136.892 
   10800    293.86939     238.8801   -3129.3366   -2692.2281   -47.983397    12136.717 
   10850    296.50086    239.02036   -3134.0121   -2692.9896   -208.24562    12136.359 
   10900    295.36361    238.98245   -3132.7485   -2693.4175   -253.91171    12135.726 
   10950    297.05179    239.14328   -3138.1092   -2696.2672   -407.36227    12134.768 
   11000    279.16602    238.50837   -3116.9457   -2701.7074    253.32688    12133.468 
   11050    286.89825    238.84326   -3128.1087   -2701.3693     90.21561    12132.085 
   11100    286.87434    238.84944   -3128.3147   -2701.6109    83.485851    12130.593 
   11150    278.67315    238.59017   -3119.6724   -2705.1672     352.9418    12128.999 
   11200    299.40473    239.32459    -3144.153   -2698.8112   -220.87889    12127.375 
   11250    288.62421    238.84746   -3128.2487   -2698.9421    177.37889     12125.53 
   11300    289.65458    238.98597   -3132.8658   -2702.0265    160.93277    12123.569 
   11350    288.18153     238.9194   -3130.6465   -2701.9983    188.09383    12121.522 
   11400    284.62975    238.88331   -3129.4437   -2706.0785    298.26993    12119.414 
   11450    280.08156    238.69848   -3123.2825   -2706.6824    445.82059    12117.313 
   11500    275.63485     238.4784   -3115.9467   -2705.9607    574.36004    12115.296 
   11550    281.73749     238.6646   -3122.1534   -2703.0902    379.27328    12113.392 
   11600    284.93775    238.80391    -3126.797   -2702.9737    325.00992    12111.537 
   11650    301.97265    239.34979   -3144.9931   -2695.8317   -175.32647    12109.676 
   11700    293.78188     239.0254   -3134.1799   -2697.2017    142.27237    12107.592 
   11750    277.35366    238.43599   -3114.5331   -2701.9905    771.52653     12105.43 
   11800     285.5759    238.65525   -3121.8416   -2697.0691    544.04132    12103.468 
   11850    297.24751    239.11661   -3137.2204   -2695.0873      148.097    12101.616 
   11900    293.97791    238.96697   -3132.2323   -2694.9625    310.61093    12099.702 
   11950    297.33059    239.04391   -3134.7969   -2692.5402    254.26253    12097.768 
   12000    292.41019    238.90091   -3130.0302   -2695.0922    415.25341    12095.815 
   12050    286.98614    238.73136   -3124.3788   -2697.5087    592.48588    12093.913 
   12100    285.27782    238.63686   -3121.2288   -2696.8996    645.93085    12092.155 
   12150    302.58398    239.07714   -3135.9047   -2685.8339    220.88074    12090.543 
   12200    309.84091    239.30521    -3143.507   -2682.6421     74.02351    12088.883 
   12250    303.59283    239.09419   -3136.4729   -2684.9016    366.91629    12087.097 
   12300    296.39882    238.81912    -3127.304   -2686.4332     778.1658    12085.335 
   12350    286.67017    238.51376   -3117.1255   -2690.7253    1078.7763    12083.816 
   12400    300.08443    238.95728   -3131.9095   -2685.5566    670.19142    12082.652 
   12450    289.86525    238.54899   -3118.2998   -2687.1472    1012.5749    12081.721 
   12500    296.92794    238.80083   -3126.6943   -2685.0365    846.12761    12081.118 
   12550     288.4947    238.38336   -3112.7785   -2683.6645    1224.1753    12080.832 
   12600    301.59372    238.81579    -3127.193   -2678.5952    855.85679    12080.974 
   12650    303.01406    238.84827   -3128.2756   -2677.5652    790.06653    12081.402 
   12700    302.63429    238.79879   -3126.6263   -2676.4807    800.83969    12082.071 
   12750    312.96557    239.16899   -3138.9662   -2673.4536    494.86305     12082.96 
   12800    299.60212      238.676   -3122.5334   -2676.8979    999.37211    12083.961 
   12850    291.98633    238.43709   -3114.5696   -2680.2621     1182.908    12085.302 
   12900    306.86283     238.8647   -3128.8234   -2672.3882    709.68005    12087.043 
   12950    305.71158    238.70411   -3123.4705   -2668.7477    888.97025    12089.012 
   13000    296.23726    238.39196   -3113.0653   -2672.4348    1287.6951    12091.275 
   13050    298.99856    238.39659   -3113.2198   -2668.4821    1157.9402    12094.003 
   13100    311.11719    238.83445   -3127.8149   -2665.0517    674.21847    12097.139 
   13150    300.23661    238.42167   -3114.0555   -2667.4763    1016.3573    12100.482 
   13200    307.10683    238.61705   -3120.5683   -2663.7701    898.23461    12104.131 
   13250    298.60779    238.27575   -3109.1916   -2665.0351     1133.494    12108.097 
   13300    295.31423    238.07703   -3102.5677   -2663.3102    1224.1856     12112.45 
   13350    297.84982    238.10847   -3103.6156   -2660.5866    1142.9554    12117.257 
   13400    311.67164    238.55822   -3118.6073   -2655.0193    719.14886    12122.466 
   13450     318.1128    238.72317   -3124.1056   -2650.9369    549.81994    12127.877 
   13500    304.22995    238.28471   -3109.4905   -2656.9715    929.69621    12133.406 
   13550     300.6146    238.10754   -3103.5847   -2656.4432    932.92363    12139.216 
   13600    306.43049    238.37775   -3112.5915   -2656.7994      648.366     12145.32 
   13650    290.78952    237.77905    -3092.635   -2660.1077    1083.4299    12151.627 
   13700     306.6883    238.29264   -3109.7546    -2653.579    522.28304    12158.261 
   13750    316.43512    238.63007   -3121.0025   -2650.3292     164.3836    12164.982 
   13800    293.55768    237.77545    -3092.515   -2655.8702     814.4839    12171.642 
   13850    302.55669    238.00755   -3100.2518   -2650.2216     481.9981    12178.492 
   13900    312.14244    238.36454   -3112.1512    -2647.863    11.745841    12185.397 
   13950    301.42646    238.01594   -3100.5312   -2652.1822    253.12581    12192.142 
   14000    303.08497    237.96484   -3098.8279   -2648.0119    262.83501    12198.802 
   14050    300.97902    242.85038   -3095.0126   -2647.3291    278.28461    12205.407 
   14100    297.85574    242.69955   -3089.9852   -2646.9473    298.98885    12211.984 
   14150    305.17841    243.00007   -3100.0023   -2646.0726   -12.873811    12218.525 
   14200     301.8387    242.90699   -3096.8998   -2647.9376    59.681931    12224.885 
   14250    293.82175      242.556      -3085.2   -2648.1624    346.94736    12231.098 
   14300    293.54323    242.58244   -3086.0812   -2649.4579    271.72927    12237.301 
   14350    288.18706    242.35717   -3078.5723   -2649.9159    321.92912    12243.492 
   14400    306.56427    242.88707   -3096.2358   -2640.2447   -173.55318    12249.637 
   14450    291.64855    242.38089   -3079.3632    -2645.558    324.83906    12255.564 
   14500    294.67968    242.45608   -3081.8694   -2643.5557    248.73271     12261.44 
   14550    292.99555    242.38663   -3079.5542   -2643.7455    186.31574    12267.285 
   14600    304.74049    242.80772   -3093.5906   -2640.3122   -224.08684    12273.013 
   14650    293.38442    242.27278   -3075.7592   -2639.3721    159.75322    12278.481 
   14700    298.67662    242.39746   -3079.9152   -2635.6564    8.3735408    12283.787 
   14750    288.79091    242.00271   -3066.7571   -2637.2025    272.37512     12288.93 
   14800    301.56589    242.40745   -3080.2483   -2631.6919   -251.00256    12293.992 
   14850    309.22648    242.70394   -3090.1314   -2630.1805   -597.99429    12298.742 
   14900     306.9768    242.56581   -3085.5269   -2628.9222   -436.33732    12302.976 
   14950    298.52032    242.15894   -3071.9645   -2627.9382   -118.79647    12306.798 
   15000    300.76685    242.20897   -3073.6325   -2626.2646   -261.26685    12310.336 
   15050    294.31419    246.97254   -3065.7514   -2627.9814   -150.28378    12313.569 
   15100    298.88036    247.06491   -3068.8303   -2624.2685   -287.99997    12316.543 
   15150    303.54508     247.1839   -3072.7968   -2621.2965   -418.97547    12319.182 
   15200    298.48694    247.03299   -3067.7665   -2623.7898   -184.25754    12321.428 
   15250    284.74425    246.46612   -3048.8706   -2625.3351    317.76954    12323.424 
   15300    292.27208    246.74098   -3058.0327   -2623.3001    26.423085    12325.383 
   15350    290.64022    246.71678   -3057.2261   -2624.9208   -1.7616934     12327.21 
   15400    290.50296    246.67932   -3055.9772   -2623.8761      66.1966     12328.88 
   15450    288.61764    246.54019   -3051.3396   -2622.0427    200.42386    12330.429 
   15500    294.45898    246.70267   -3056.7558   -2618.7704    74.175232    12331.907 
   15550    305.02089    247.14712   -3071.5707   -2617.8752   -289.07863    12333.245 
   15600    303.04409    247.06384   -3068.7947   -2618.0396   -165.12419    12334.275 
   15650    283.90525    246.29021   -3043.0071   -2620.7195    601.71032    12335.082 
   15700    295.28177    246.61517   -3053.8391   -2614.6298    170.83128        12336 
   15750    321.71743    247.51423   -3083.8077   -2605.2774   -822.24535    12336.813 
   15800    313.15009    247.17712   -3072.5706   -2606.7836    -522.3609    12337.063 
   15850    298.58435      246.617   -3053.8999   -2609.7783     81.59829     12336.87 
   15900    300.22783    246.57822   -3052.6073   -2606.0411    107.62258    12336.543 
   15950     310.6874    246.95318   -3065.1061   -2602.9822   -200.50049    12336.087 
   16000     301.3535    246.61944   -3053.9814   -2605.7409    162.37721    12335.389 
   16050    296.14421    246.50174    -3050.058   -2609.5659    318.51844     12334.61 
   16100     305.6404    246.80067   -3060.0224   -2605.4054    92.740557    12333.818 
   16150    297.15435     246.4605   -3048.6832   -2606.6887    446.35552    12332.965 
   16200    304.67977    246.77481   -3059.1604   -2605.9723    199.54169    12332.165 
   16250    305.20085    246.84853   -3061.6178   -2607.6546    89.985748    12331.325 
   16300    312.67466     246.9813   -3066.0432   -2600.9633   -66.009558    12330.352 
   16350     305.5628    246.64796    -3054.932   -2600.4305    272.82849    12329.213 
   16400    312.02336    246.85746   -3061.9152   -2597.8041    115.89609    12328.018 
   16450    301.08575     246.4266   -3047.5533    -2599.711    455.49615    12326.773 
   16500    326.62425    247.34749   -3078.2497   -2592.4209   -265.66209    12325.556 
   16550    301.61048    246.41936   -3047.3119   -2598.6892    531.81315     12324.12 
   16600    301.50964    246.41984    -3047.328   -2598.8553    495.60361    12322.764 
   16650    315.14664    246.88877    -3062.959   -2594.2022    22.698019    12321.502 
   16700    315.08703    246.88524   -3062.8415   -2594.1734    102.76587    12320.111 
   16750    306.53877    246.55722   -3051.9074   -2595.9542    484.06348    12318.634 
   16800    298.90777    246.26787   -3042.2625   -2597.6598    713.33708    12317.274 
   16850    319.10482    247.00753   -3066.9176   -2592.2734    61.818495    12316.084 
   16900    302.99251    246.42557    -3047.519   -2596.8406    587.35942    12314.835 
   16950    315.30443    246.91941   -3063.9805   -2594.9891    138.53706    12313.696 
   17000    324.24392    247.32449   -3077.4829   -2595.1947   -115.08039     12312.49 
   17050    306.53447    246.69109   -3056.3698    -2600.423    595.30235     12311.11 
   17100    303.78296    246.56519   -3052.1731    -2600.319    721.92157    12309.872 
   17150    307.46117    246.56167   -3052.0555   -2594.7304    539.03254    12308.867 
   17200      319.019    246.99535   -3066.5117   -2591.9951     145.2243    12307.975 
   17250    307.85237    246.60235   -3053.4116   -2595.5045    576.03194    12307.043 
   17300    310.28567    246.64709   -3054.9029   -2593.3765    618.21057    12306.229 
   17350    308.24627    246.62049   -3054.0163   -2595.5234    590.87409    12305.603 
   17400    326.28196    247.28697   -3076.2324   -2590.9128   -52.848907     12305.09 
   17450    322.87997    247.21854   -3073.9514    -2593.692    26.390856    12304.434 
   17500    323.29698    247.15419   -3071.8062   -2590.9264    49.104164    12303.597 
   17550    302.69154    246.49499   -3049.8329   -2599.6022    670.69528    12302.646 
   17600    300.19558    246.52079    -3050.693   -2604.1748    744.16515     12301.88 
   17650    313.94581    247.09802   -3069.9339   -2602.9633    322.55523    12301.331 
   17700    282.99311    246.00463   -3033.4876   -2612.5568     1283.228    12300.892 
   17750    303.96825    246.82483   -3060.8275   -2608.6978    551.14067    12300.896 
   17800    308.35398    247.00109    -3066.703   -2608.0498    285.38154    12301.081 
   17850    305.61444    246.80297   -3060.0991   -2605.5208    425.51517    12301.268 
   17900    306.50299    246.89743   -3063.2476   -2607.3476    363.33039    12301.522 
   17950    313.66664    247.18189   -3072.7297   -2606.1744    101.36421    12301.795 
   18000    305.42835    246.90272   -3063.4241   -2609.1226    422.01492    12301.993 
   18050    302.25839    246.74765    -3058.255   -2608.6685    564.25037    12302.246 
   18100    305.97612    247.12232   -3070.7441   -2615.6278    188.29902    12302.617 
   18150    311.12237    247.30705   -3076.9016   -2614.1306   -123.52931    12302.935 
   18200    303.02505    247.08924   -3069.6415   -2618.9147    205.72297    12303.051 
   18250    300.68714     247.1376   -3071.2534   -2624.0041     294.7014    12303.103 
   18300     308.8799    247.51097   -3083.6989   -2624.2634   -65.324076    12303.131 
   18350    295.41811    246.97671   -3065.8902   -2626.4781     242.0757    12303.019 
   18400    314.19631    247.66792   -3088.9308   -2621.5876   -476.13874    12302.797 
   18450     300.1919    247.13478   -3071.1595   -2624.6468   -73.090116    12302.209 
   18500    295.59558    247.03494   -3067.8313   -2628.1553    88.508189    12301.403 
   18550    292.33377    247.02928   -3067.6427   -2632.8184    196.63607    12300.494 
   18600    283.53915    246.74878   -3058.2927   -2636.5497    482.75757    12299.561 
   18650    309.55056    247.77369   -3092.4563   -2632.0233   -401.52214    12298.665 
   18700    299.61075    247.36248   -3078.7495   -2633.1012   -84.159394    12297.451 
   18750    285.34858    246.89114   -3063.0379   -2638.6035    371.02666    12296.041 
   18800    302.53436    247.55018   -3085.0058   -2635.0089   -274.65294    12294.612 
   18850    291.45571    247.04611   -3068.2035   -2634.6852    102.39496    12292.942 
   18900    296.33685    247.33892   -3077.9639   -2637.1853    43.907761    12291.136 
   18950    290.64922    247.20153   -3073.3842   -2641.0655    160.04851     12289.22 
   19000    309.12809    247.85362   -3095.1207   -2635.3161   -474.15365    12287.181 
   19050    286.13048    247.02613   -3067.5377   -2641.9403    205.00999    12284.821 
   19100    293.34499    247.33792   -3077.9305   -2641.6021    55.356506    12282.358 
   19150    292.21308    247.36463   -3078.8211   -2644.1763    119.28932    12279.798 
   19200    279.62622    246.89611   -3063.2036   -2647.2808    565.85938    12277.187 
   19250    299.65139    247.62349   -3087.4496   -2641.7409   -53.480638     12274.68 
   19300    302.56537    247.74564   -3091.5215   -2641.4784   -271.98197    12272.014 
   19350    294.34732    247.50888   -3083.6294   -2645.8101   -43.357064    12269.057 
   19400     295.8467    247.54564   -3084.8547   -2644.8052   -70.224723     12265.91 
   19450    297.33861    247.57335   -3085.7783   -2643.5097   -93.104394    12262.573 
   19500     299.5666    247.61991   -3087.3302   -2641.7476   -110.17661    12259.021 
   19550    292.38305    247.38213   -3079.4042   -2644.5065    150.74936    12255.278 
   19600    284.09675    247.09023   -3069.6744    -2647.102     385.3417    12251.468 
   19650    283.43823    247.11526   -3070.5088   -2648.9159    383.36806     12247.72 
   19700    287.26173    247.25492   -3075.1641    -2647.884    339.89915    12244.038 
   19750    291.12009    247.38178   -3079.3928   -2646.3737    317.63134    12240.398 
   19800    305.00834    247.86526   -3095.5088    -2641.832   -107.72206    12236.771 
   19850    296.41575    247.58451   -3086.1503   -2645.2544    153.00345    12232.978 
   19900    287.04024    247.26264   -3075.4213   -2648.4707    496.61446    12229.116 
   19950    296.95656    247.59339   -3086.4462   -2644.7459    237.43491    12225.353 
   20000    304.00392    247.82638   -3094.2127   -2642.0299    156.76926    12221.587 
   20050     295.4326    242.55777   -3085.2589   -2645.8253    506.29064    12217.768 
   20100    295.39547    242.56111   -3085.3704    -2645.992    515.76589     12214.04 
   20150    291.63731    242.46464   -3082.1548   -2648.3664    623.65647    12210.435 
   20200     301.3106    242.79655   -3093.2183   -2645.0416    310.63304    12206.984 
   20250    305.52064    242.92402   -3097.4673   -2643.0285    252.69465    12203.543 
   20300    300.33606    242.78776   -3092.9254   -2646.1983    550.31062    12200.084 
   20350    305.25689    242.95366   -3098.4553   -2644.4088     426.4714    12196.739 
   20400    310.54104    243.07501   -3102.5003   -2640.5941    214.20464     12193.45 
   20450    307.82058    242.92434   -3097.4781   -2639.6183    310.21008    12190.126 
   20500    297.19555    242.59568   -3086.5228    -2644.467    699.41269    12186.818 
   20550     304.6886    242.90176   -3096.7253   -2643.5241    594.01701    12183.669 
   20600    296.62376     242.5988   -3086.6268   -2645.4214     942.0327    12180.712 
   20650    295.10151    242.48814   -3082.9379   -2643.9968    1063.2124    12178.089 
   20700    304.14033    242.74221   -3091.4068   -2639.0212    776.59002    12175.855 
   20750    320.92917    243.42431   -3114.1436   -2636.7858    191.48309    12173.844 
   20800    304.82877    242.84508    -3094.836   -2641.4263    626.22708    12171.837 
   20850    313.98966     243.2125   -3107.0833   -2640.0475    403.06391    12169.947 
   20900    302.31497    242.76576   -3092.1921   -2642.5215    892.51002    12168.139 
   20950    303.71411    242.81193   -3093.7309   -2641.9792    960.99578    12166.607 
   21000    299.91387     242.6632   -3088.7733   -2642.6742    1178.8922     12165.44 
   21050    299.29494    237.71267   -3090.4224   -2645.2438    1242.3357    12164.733 
   21100    309.28092    237.98793   -3099.5975   -2639.5656    912.68628    12164.505 
   21150     309.7452    238.06646   -3102.2152   -2641.4927    727.74918    12164.588 
   21200    317.75205    238.30849   -3110.2829   -2637.6508    424.73793     12164.87 
   21250    312.41112    238.19943   -3106.6475   -2641.9596    576.12931    12165.228 
   21300    306.03628    237.97044   -3099.0146   -2643.8088    717.35885    12165.699 
   21350    311.15583    238.21047   -3107.0156   -2644.1949     436.7704    12166.347 
   21400    327.17039    238.76402   -3125.4675   -2638.8263   -33.029176    12167.013 
   21450    310.22914    238.16369   -3105.4563    -2644.014    601.77817    12167.531 
   21500     303.9895    237.97966   -3099.3219   -2647.1606    826.58908    12168.152 
   21550    299.76609    237.82396   -3094.1321   -2648.2527    890.34564    12169.032 
   21600    308.77241    238.22088   -3107.3625    -2648.087    420.86553     12170.18 
   21650    317.43172     238.6065   -3120.2167    -2648.061   -20.756049    12171.367 
   21700    303.91719    238.21538   -3107.1792   -2655.1254    443.23615    12172.385 
   21750    299.44461    238.12436   -3104.1453   -2658.7441    651.72718    12173.447 
   21800     304.1117    238.43142   -3114.3806   -2662.0375    309.39013    12174.668 
   21850    299.50371     238.2808   -3109.3602   -2663.8711    351.89584    12175.883 
   21900    295.62251    238.17393   -3105.7978   -2666.0817    409.29891    12177.101 
   21950    299.90254    238.41642   -3113.8808   -2667.7985    167.95815    12178.351 
   22000     308.9679     238.8321   -3127.7365   -2668.1702   -296.19456    12179.493 
   22050    297.79221    238.58749   -3119.5829   -2676.6396   -166.02184    12180.314 
   22100    288.14098    238.29968   -3109.9892   -2681.4013    36.947468    12180.865 
   22150    292.03151    238.44276   -3114.7585   -2680.3838   -82.813892    12181.232 
   22200    281.43088     238.1199   -3103.9965   -2685.3894    301.87188    12181.405 
   22250    280.89131    238.17186   -3105.7285    -2687.924    251.13694    12181.543 
   22300    283.66186    238.27403   -3109.1342   -2687.2087    77.077003    12181.649 
   22350    275.61212    238.06869   -3102.2897   -2692.3375    328.92765    12181.646 
   22400    285.53891    238.48051   -3116.0169   -2691.2994     -47.2306    12181.609 
   22450    298.24972    238.90162   -3130.0542   -2686.4303   -576.28023    12181.364 
   22500    294.19934    238.80407   -3126.8024   -2689.2032   -473.98983    12180.642 
   22550     286.8586    238.59347   -3119.7824    -2693.102   -200.54603      12179.5 
   22600     282.9152    238.54286   -3118.0954   -2697.2805   -74.946958    12178.071 
   22650    289.48244    238.84204    -3128.068   -2697.4849   -215.75147    12176.395 
   22700     284.2067    238.73326    -3124.442    -2701.706    29.698897    12174.459 
   22750    285.90916    238.67172   -3122.3907   -2697.1225     -35.1384    12172.355 
   22800    288.63052    238.68716   -3122.9053   -2693.5893   -181.77817    12170.058 
   22850    289.41973    238.74288   -3124.7626   -2694.2727   -184.08198    12167.475 
   22900    287.96184    238.80325   -3126.7749   -2698.4535   -143.26043    12164.621 
   22950     286.6625    238.74083   -3124.6942   -2698.3054   -100.71925    12161.532 
   23000    290.07771    238.86353   -3128.7845   -2697.3159   -183.49371    12158.205 
   23050    297.48665    239.15498   -3138.4994   -2696.0105   -323.19901    12154.593 
   23100    266.34764    238.00891   -3100.2969   -2704.1249    789.55372    12150.716 
   23150    276.07706    238.28805   -3109.6017    -2698.958    569.85736    12147.014 
   23200    287.38472    238.63963    -3121.321    -2693.858    258.10883    12143.449 
   23250    281.67199     238.4325   -3114.4166   -2695.4509    473.34536    12139.886 
   23300    290.81655    238.76606   -3125.5353   -2692.9677        226.5     12136.36 
   23350    292.95009    238.90841   -3130.2804   -2694.5393    142.46088    12132.803 
   23400    293.10829    238.87265   -3129.0883   -2693.1119    243.78504    12129.152 
   23450    288.73092    238.65912   -3121.9708   -2692.5054    489.44921    12125.465 
   23500    290.97994    238.71069   -3123.6896    -2690.879    472.54732    12121.855 
   23550    284.16391    238.47467   -3115.8222   -2693.1499    769.40686    12118.339 
   23600    296.42125    238.90125   -3130.0417   -2689.1375    398.52785    12115.024 
   23650     297.8558    238.89547   -3129.8491   -2686.8112     258.5673    12111.767 
   23700    301.38866    238.94453   -3131.4843   -2683.1915     317.7277     12108.46 
   23750    289.60534    238.49719    -3116.573    -2685.807    839.83025    12105.175 
   23800    301.45062    239.00597   -3133.5323   -2685.1473    421.28528     12102.11 
   23850    285.19975    238.40266   -3113.4221   -2689.2091    978.14228    12099.145 
   23900    287.13989    238.38905   -3112.9683   -2685.8695    1039.1423    12096.511 
   23950    298.12076    238.67745   -3122.5816   -2679.1496    792.66936    12094.247 
   24000    284.72003    238.23536   -3107.8453   -2684.3458    1262.3716    12092.267 
   24050    290.40908    243.46001   -3115.3338   -2683.3723    1046.6203    12090.751 
   24100    295.60041    243.60234   -3120.0779   -2680.3947     905.2574    12089.625 
   24150    295.66372     243.4874   -3116.2468   -2676.4694    1022.0913    12088.832 
   24200    302.96816    243.69779   -3123.2598   -2672.6176    893.96169      12088.4 
   24250    296.17774     243.4023   -3113.4101   -2672.8682    1100.1214    12088.302 
   24300    284.48811    242.98678   -3099.5595    -2676.405    1469.8609    12088.646 
   24350    297.30332    243.47212   -3115.7373   -2673.5211    1075.9043    12089.561 
   24400    298.49002    243.44146   -3114.7152   -2670.7339    1002.9222    12090.895 
   24450    306.80338    243.65403    -3121.801   -2665.4542    745.37494     12092.58 
   24500    293.05319    243.20334    -3106.778   -2670.8836    1170.8661    12094.537 
   24550     291.9807     243.2024   -3106.7467   -2672.4475    1197.6161    12096.936 
   24600    302.28293    243.45364   -3115.1213   -2665.4984    886.16281    12099.796 
   24650    286.99268    242.78915   -3092.9718   -2666.0919     1464.278    12103.017 
   24700    305.93283    243.49303   -3116.4342   -2661.3823      928.429    12106.792 
   24750    312.06211    243.60274   -3120.0914   -2655.9227    732.16859    12110.933 
   24800    303.29024    243.21626   -3107.2087   -2656.0874     1029.795    12115.317 
   24850    297.61505    243.04809   -3101.6031   -2658.9232     1204.477    12120.077 
   24900    302.51507    243.08179   -3102.7264   -2652.7581    1067.9407    12125.298 
   24950    288.79566     242.6104   -3087.0133   -2657.4516    1428.2635    12130.967 
   25000    290.45048    242.62771   -3087.5902   -2655.5671    1306.2098    12137.215 
   25050    311.59773    243.34744   -3111.5813   -2648.1033    592.49815    12143.961 
   25100    295.81266    242.82454   -3094.1513   -2654.1524    1040.4895    12150.948 
   25150    303.99278    243.08659   -3102.8863   -2650.7201    743.01452    12158.277 
   25200    314.18972    243.46938   -3115.6459   -2648.3125    309.22955    12165.829 
   25250    300.92911    242.91519   -3097.1731   -2649.5639    645.62849     12173.44 
   25300    322.25624    243.60206   -3120.0688    -2640.737   -143.40517     12181.16 
   25350    324.66954    243.73185   -3124.3949   -2641.4736   -337.11567    12188.652 
   25400    293.66507    242.65211   -3088.4038   -2651.5992    635.11384    12195.849 
   25450    294.93927    242.65131   -3088.3771   -2649.6773     579.2128    12203.183 
   25500    298.24733    242.90304   -3096.7679   -2653.1476    335.59413    12210.665 
   25550    296.69323    242.82545   -3094.1818   -2652.8731    290.67893    12218.175 
   25600    303.04038    243.04395    -3101.465   -2650.7154      8.42851    12225.658 
   25650    298.91218    242.85329   -3095.1097   -2650.5005    158.50528    12232.994 
   25700    298.18695    242.92429   -3097.4762   -2653.9457    106.23075    12240.238 
   25750    297.01302     242.7774     -3092.58   -2650.7956    136.95805    12247.386 
   25800    288.89771    242.41595   -3080.5317   -2650.8182    366.84061    12254.454 
   25850    294.86576    242.49823   -3083.2743   -2644.6838    195.19231    12261.523 
   25900    300.75953    242.60808   -3086.9361   -2639.5791   -88.416747    12268.531 
   25950    311.65732    242.91718   -3097.2392   -2633.6726   -585.78764    12275.303 
   26000    303.49366    242.72911   -3090.9702   -2639.5464   -463.00806    12281.613 
   26050    313.69956    242.97297   -3099.0989   -2632.4946   -725.81302    12287.464 
   26100    289.29426    242.15541   -3071.8472   -2641.5439   -27.400605    12292.795 
   26150    284.29171     241.9876   -3066.2533    -2643.391    16.461655    12297.893 
   26200    291.76313    242.23824   -3074.6081   -2640.6326   -257.36264    12302.814 
   26250    289.36052    242.14365   -3071.4551   -2641.0533   -133.50422    12307.446 
   26300    293.48776    242.25108   -3075.0361   -2638.4953   -217.84988    12311.831 
   26350    301.39555    242.45778   -3081.9261   -2633.6231   -511.72731    12315.903 
   26400    289.84813    242.10963   -3070.3209   -2639.1938   -296.95329    12319.533 
   26450    291.86493    242.07607   -3069.2024   -2635.0755   -408.49186    12322.813 
   26500    297.55576    242.29103   -3076.3678   -2633.7761   -498.47128    12325.696 
   26550    287.90479    242.02856   -3067.6186   -2639.3821   -133.97685    12328.161 
   26600    299.58116    242.32754   -3077.5846   -2631.9803   -487.11404    12330.325 
   26650    287.65714    241.91819   -3063.9396   -2636.0714   -126.20082    12332.087 
   26700    286.26458    241.83195    -3061.065   -2635.2681   -100.81752    12333.607 
   26750    295.24311    242.15527   -3071.8424   -2632.6906   -450.29099    12334.879 
   26800      305.137    242.49148   -3083.0494   -2629.1812   -730.87278    12335.718 
   26850     288.0939    241.89283   -3063.0943   -2634.5764   -91.427485    12336.034 
   26900    292.11049    242.02098    -3067.366   -2632.8738   -220.13707    12336.074 
   26950    291.18897    242.01654   -3067.2179   -2634.0964   -261.46036    12335.852 
   27000    284.24259    241.74303    -3058.101   -2635.3117   -3.6611241    12335.324 
   27050      294.547    242.06418   -3068.8062   -2630.6898   -272.12962    12334.595 
   27100    295.64366    242.05192   -3068.3975     -2628.65   -228.21847    12333.568 
   27150    297.96757    242.10317   -3070.1056   -2626.9014   -180.82056    12332.226 
   27200    298.94408    242.10562   -3070.1873   -2625.5306   -230.55879      12330.6 
   27250    300.20901    242.20125   -3073.3752    -2626.837   -315.63292    12328.664 
   27300    306.64446    242.34953   -3078.3177   -2622.2073    -393.4284     12326.37 
   27350    298.05924    242.02461   -3067.4869   -2624.1463   -32.703536    12323.694 
   27400    308.49459    242.32266   -3077.4219   -2618.5596   -342.73637    12320.785 
   27450    312.19531    242.48161   -3082.7203   -2618.3534   -520.43869    12317.526 
   27500    296.85748    241.81545    -3060.515    -2618.962    108.42827    12313.842 
   27550    303.16438    241.99606   -3066.5353   -2615.6013    82.534427    12310.007 
   27600    307.70117    242.20042   -3073.3472    -2615.665    38.589719    12306.044 
   27650    293.20171    241.57532   -3052.5108   -2616.3954    601.21929    12301.957 
   27700    301.78088    241.91055   -3063.6849   -2614.8088    331.96501    12297.971 
   27750    295.90567    241.60393   -3053.4644   -2613.3272    663.27376    12294.037 
   27800    307.50407    241.96142   -3065.3807   -2607.9917    395.43063    12290.257 
   27850     324.7109     242.5312   -3084.3733   -2601.3905   -113.42844    12286.507 
   27900    306.53555     241.9526   -3065.0867   -2609.1383    469.60107     12282.58 
   27950    313.42825    242.25629   -3075.2095   -2609.0088    273.55303     12278.66 
   28000    306.23563    242.00426   -3066.8085   -2611.3063    428.49606    12274.738 
   28050    304.34902    241.93745   -3064.5817   -2611.8856    548.77174    12270.849 
   28100    302.27511    241.87646   -3062.5488   -2612.9375    692.54595    12267.096 
   28150    312.73157    242.32308   -3077.4359   -2612.2714     391.8664    12263.524 
   28200    296.84254    241.78748   -3059.5828    -2618.052    890.22471     12260.05 
   28250     312.0386    242.21801   -3073.9336   -2609.7998    487.44077     12256.83 
   28300    316.01793    242.34552    -3078.184   -2608.1313     376.8351    12253.721 
   28350    331.78034    242.86736   -3095.5785   -2602.0804   -34.513057    12250.597 
   28400    299.23618    241.69457   -3056.4855   -2611.3944    1039.0127    12247.373 
   28450    319.61491    242.50045   -3083.3482   -2607.9452    457.84176     12244.42 
   28500    297.55682    241.65782   -3055.2606   -2612.6674    1247.0176    12241.621 
   28550     302.4319    241.77916   -3059.3054   -2609.4608    1175.8717    12239.278 
   28600    317.87168    242.30615   -3076.8715   -2604.0615    702.07003    12237.377 
   28650    307.21743    242.08017    -3069.339   -2612.3763    906.20949     12235.73 
   28700    327.44399    242.85479   -3095.1598   -2608.1116    198.53524    12234.335 
   28750    326.37491    242.84942   -3094.9808   -2609.5229    265.38791    12232.904 
   28800    303.91945    242.00365   -3066.7883   -2614.7311    983.19903    12231.488 
   28850    310.85425    242.25171   -3075.0569   -2612.6848    744.44078    12230.368 
   28900    308.73588    242.05928   -3068.6426   -2609.4213    831.05794    12229.508 
   28950    310.57352    242.15097   -3071.6989   -2609.7443    819.90202    12228.915 
   29000    308.44092    242.22209   -3074.0697   -2615.2872    873.59408    12228.594 
   29050    308.39355    242.28919   -3076.3062   -2617.5942    792.91436    12228.572 
   29100    320.06201    242.83096   -3094.3655   -2618.2975    374.44634     12228.78 
   29150    319.73821    242.78826   -3092.9421   -2617.3557    416.41909    12229.027 
   29200    308.04466    242.32893    -3077.631    -2619.438    842.61815    12229.342 
   29250    303.13602    242.10643   -3070.2144   -2619.3226    988.72065    12229.919 
   29300    313.32092    242.47902   -3082.6339   -2616.5928    627.29892    12230.811 
   29350    306.12352     242.2098     -3073.66   -2618.3244    791.84523    12231.908 
   29400    305.35513    242.25544   -3075.1814   -2620.9888    730.05242    12233.247 
   29450    313.88033    242.46229   -3082.0763   -2615.2031    474.35507    12234.805 
   29500    314.50616    242.52461   -3084.1536   -2616.3495    425.91671    12236.461 
   29550    309.77228    242.46177   -3082.0591   -2621.2963    524.65636    12238.179 
   29600    304.09207    242.18415    -3072.805   -2620.4911    681.61102    12240.017 
   29650     298.7758    242.08902   -3069.6339   -2625.2275    773.68022     12242.05 
   29700    301.85622    242.22082   -3074.0275   -2625.0392    616.26834    12244.321 
   29750    289.69982    241.80288   -3060.0961   -2629.1896    930.99562    12246.787 
   29800    290.83863    241.88157   -3062.7191   -2630.1187    863.57737    12249.567 
   29850    295.39902    242.10496   -3070.1654   -2630.7818    682.07377    12252.665 
   29900    292.07953    241.96083   -3065.3611    -2630.915     837.5998    12255.985 
   29950    297.53607    242.06822   -3068.9408   -2626.3784    674.34966    12259.578 
   30000    307.95442    242.49564    -3083.188   -2625.1292    212.69917    12263.379 
   30050    309.64955    242.50352   -3083.4508   -2622.8705    154.59628     12267.14 
   30100    286.56177    241.75367   -3058.4558   -2632.2169    752.84394    12270.874 
   30150    298.08163    242.13769   -3071.2564   -2627.8826    249.94171    12274.779 
   30200    290.79335    241.94643   -3064.8809   -2632.3479    403.10861    12278.691 
   30250    291.80563    241.96172   -3065.3906   -2631.3519    387.16041    12282.649 
   30300    293.25426    242.00283    -3066.761   -2630.5675    270.53284    12286.654 
   30350    301.54095    242.25745   -3075.2482   -2626.7289   -60.008875    12290.629 
   30400    306.74842     242.4881   -3082.9368   -2626.6718   -303.89886    12294.403 
   30450     303.1091    242.40894    -3080.298   -2629.4462   -187.72562    12297.864 
   30500    300.07763    242.36809   -3078.9365   -2632.5938   -130.12946    12301.058 
   30550     302.9569    242.49341   -3083.1138   -2632.4883   -233.04726    12303.987 
   30600    290.98397    242.01671   -3067.2236    -2634.407    177.82799    12306.647 
   30650    301.59907    242.41596   -3080.5321   -2631.9263    -275.1559    12309.209 
   30700    306.18111    242.48392   -3082.7973   -2627.3761   -448.38493     12311.46 
   30750    283.50453    241.72059   -3057.3529   -2635.6614    231.16502    12313.331 
   30800    292.39474    241.99689   -3066.5629   -2631.6479   -110.74158    12315.101 
   30850    317.34757     242.9511   -3098.3702   -2626.3397   -1036.9199    12316.607 
   30900    307.59085    242.51818   -3083.9395   -2626.4214   -731.21639    12317.434 
   30950     300.7903    242.33983   -3077.9942   -2630.5914   -472.38654    12317.667 
   31000     301.7829    242.46682   -3082.2273   -2633.3481   -493.60088    12317.451 
   31050     304.0158    237.56677   -3085.5591   -2633.3586   -545.29648     12316.75 
   31100    296.62239    237.27603   -3075.8677   -2634.6644   -366.40728    12315.583 
   31150    308.34224    237.73207    -3091.069   -2632.4333   -726.07694    12313.986 
   31200    298.90851    237.42259   -3080.7531   -2636.1493   -345.34845    12311.839 
   31250    286.78008    237.00983   -3066.9945   -2640.4308    68.113891     12309.31 
   31300     295.3051    237.33602   -3077.8674   -2638.6234   -198.01264    12306.592 
   31350    303.22288    237.57025   -3085.6751   -2634.6541   -454.98373    12303.591 
   31400    302.52896    237.56527    -3085.509   -2635.5201   -421.84644    12300.149 
   31450    304.17632    237.63189   -3087.7295   -2635.2903    -381.9336    12296.267 
   31500    312.92222    238.05829   -3101.9429   -2636.4949    -667.5985    12291.974 
   31550    317.93629    238.21957   -3107.3189   -2634.4128    -811.6295    12287.106 
   31600    297.73085    237.50627   -3083.5422   -2640.6901   -161.41893    12281.633 
   31650    282.24566    236.93585   -3064.5284   -2644.7094    443.68471    12275.863 
   31700    277.21953    236.81283   -3060.4276   -2648.0846    667.63206    12270.138 
   31750    303.84287    237.82545   -3094.1816   -2642.2384   -172.30725    12264.547 
   31800    319.91061    238.39408    -3113.136   -2637.2933   -640.50301    12258.678 
   31850     299.4873    237.81486   -3093.8287   -2648.3641   -59.534506    12252.317 
   31900    297.94556    237.72745    -3090.915   -2647.7436    116.66962    12245.681 
   31950    296.87383    237.67479   -3089.1596   -2647.5823    241.48695     12238.93 
   32000    306.34454    238.02186   -3100.7286   -2645.0643   -57.867396    12232.092 
   32050    305.97754    232.99904   -3099.9679   -2644.8495   -33.367001    12225.021 
   32100    295.96176    232.74993   -3091.6643   -2651.4436    344.00456    12217.743 
   32150    298.14061    232.85863   -3095.2878   -2651.8263    363.26557    12210.425 
   32200    310.92111    233.40978   -3113.6594   -2651.1878    2.2917081     12203.07 
   32250    302.73758    233.16123   -3105.3742    -2655.075     310.4283    12195.548 
   32300    292.69752    232.87667    -3095.889   -2660.5236    673.63318    12187.983 
   32350    295.76481    233.00083   -3100.0275   -2660.0998    655.60945    12180.557 
   32400    299.80365    233.12857   -3104.2856   -2658.3504    627.53746    12173.301 
   32450     310.3062    233.49124   -3116.3747   -2654.8178    410.33265    12166.159 
   32500    308.11977    233.53925   -3117.9752   -2659.6704    372.30754    12159.047 
   32550    307.28149    233.52318   -3117.4395   -2660.3816    304.78765    12151.912 
   32600    299.12556    233.25265   -3108.4218   -2663.4952    560.54681    12144.756 
   32650    311.66723    233.78991   -3126.3302   -2662.7488    212.48211    12137.656 
   32700    307.82754    233.67428   -3122.4762    -2664.606    398.28355      12130.5 
   32750    297.58938     233.4671   -3115.5701   -2672.9284    735.62529    12123.348 
   32800    291.30946    233.28234   -3109.4112   -2676.1104    925.06035    12116.402 
   32850    307.98791    233.89405   -3129.8015   -2671.6928    488.98158    12109.705 
   32900    295.06014    233.50613    -3116.871   -2677.9914    864.91202    12103.137 
   32950    313.48691    234.18371   -3139.4571   -2673.1691    321.05156    12096.761 
   33000    299.81111    233.76758    -3125.586   -2679.6397    767.11204    12090.398 
   33050    304.17985    229.00883   -3133.6277   -2681.1832    640.46836    12084.203 
   33100    304.10856    229.09557   -3136.5189   -2684.1805    616.03302    12078.135 
   33150    286.16728     228.5338   -3117.7933   -2692.1411    1109.0464    12072.219 
   33200    313.57142    229.47128   -3149.0425   -2682.6288    348.64982    12066.598 
   33250    307.28798     229.3304   -3144.3467   -2687.2791    594.74469    12061.003 
   33300    300.43107    229.12327   -3137.4422   -2690.5737    909.08557    12055.504 
   33350     302.8751    229.22682   -3140.8939   -2690.3901    857.67096     12050.26 
   33400    306.42592    229.35525    -3145.175   -2689.3897    769.63339    12045.254 
   33450    293.14585    228.96689   -3132.2295   -2696.1973    1192.1714    12040.462 
   33500    291.74487    228.88716    -3129.572   -2695.6236    1321.2369    12036.083 
   33550    305.13373    229.34554   -3144.8514   -2690.9881    881.66272    12032.176 
   33600    310.15445    229.56666   -3152.2221   -2690.8908    766.72985    12028.529 
   33650    288.48665    228.91845   -3130.6149   -2701.5128    1459.9044    12025.133 
   33700    303.04864    229.33269    -3144.423   -2693.6611    1010.5567    12022.232 
   33750    302.11189    229.33681   -3144.5603   -2695.1917    963.44618    12019.679 
   33800    297.38446    229.30058   -3143.3527   -2701.0158    1160.7121    12017.429 
   33850     289.8121    229.01118   -3133.7058   -2702.6323    1470.9996    12015.603 
   33900    301.34498    229.37884   -3145.9612   -2697.7334    1132.8492    12014.309 
   33950    303.68858    229.45657   -3148.5522   -2696.8385    971.55136    12013.414 
   34000    312.09778    229.79317   -3159.7724   -2695.5506    556.71979    12012.794 
   34050    309.99182    229.76005   -3158.6682   -2697.5788    566.14965    12012.271 
   34100    299.82909    229.41248   -3147.0827   -2701.1097    907.92446    12011.851 
   34150    297.32444    229.36065   -3145.3551   -2703.1075    960.64588    12011.685 
   34200    294.47373    229.34327   -3144.7758   -2706.7684      1035.67    12011.824 
   34250    305.93662    229.71061   -3157.0203   -2701.9627    724.44227    12012.285 
   34300    303.47971    229.62273   -3154.0912   -2702.6881    794.60517    12012.947 
   34350    291.34156    229.23582    -3141.194   -2707.8455     1157.646    12013.827 
   34400    280.25422    228.83983   -3127.9942   -2711.1373    1459.5741    12015.124 
   34450    301.03603     229.5116   -3150.3866   -2702.6184     766.1472    12016.928 
   34500    301.36198    229.54059   -3151.3531      -2703.1    618.54151    12018.965 
   34550    305.11674    229.63177   -3154.3923   -2700.5542    483.25406    12021.115 
   34600     279.3234    228.81381   -3127.1271   -2711.6547    1304.5739    12023.382 
   34650    289.39828    229.17682   -3139.2273   -2708.7693    1131.3499     12026.08 
   34700    294.07225    229.37335   -3145.7783   -2708.3681     874.8497    12029.185 
   34750    297.68815    229.50103   -3150.0342   -2707.2456    694.82454    12032.555 
   34800    311.15829    229.91369   -3163.7897   -2700.9653    271.01992    12036.081 
   34850    305.70167    229.71628   -3157.2092   -2702.5011    389.69169    12039.575 
   34900    290.26568    229.15632   -3138.5439   -2706.7957     799.0539    12043.071 
   34950     300.7354    229.54249   -3151.4165   -2704.0954    363.93265    12046.751 
   35000    309.55197    229.84397   -3161.4656   -2701.0305    65.981801    12050.441 
   35050    288.82346    224.24801   -3141.6002   -2711.9972    665.24862    12054.002 
   35100    287.77646     224.1825   -3139.4166   -2711.3709    734.44235    12057.673 
   35150    286.04751    224.10416   -3136.8053   -2711.3313    850.17247    12061.536 
   35200    289.53562    224.15422   -3138.4741   -2707.8118    688.84436    12065.632 
   35250    297.26774    224.45804   -3148.6013    -2706.438    300.13866    12069.867 
   35300      294.546    224.27398   -3142.4661   -2704.3512    318.84751    12074.083 
   35350    301.07165    224.46065   -3148.6883    -2700.867    27.916176    12078.219 
   35400    304.78747    224.62077   -3154.0257   -2700.6775   -140.98886    12082.151 
   35450    289.20181    224.09375   -3136.4584   -2706.2926    372.39885     12085.84 
   35500    295.99854    224.36017   -3145.3391   -2705.0637    126.70967     12089.47 
   35550    305.77103    224.63752    -3154.584   -2699.7728   -154.76491    12092.964 
   35600    300.37933    224.48792   -3149.5972   -2702.8057    68.400805    12096.166 
   35650    280.68344    223.74439   -3124.8129   -2707.3175    626.90523    12099.203 
   35700    287.65966    223.99003   -3133.0009    -2705.129    314.70293    12102.322 
   35750    293.56232    224.14502   -3138.1673   -2701.5156    114.86056    12105.403 
   35800    298.98741    224.36615   -3145.5383   -2700.8172   -64.962493    12108.328 
   35850    306.06209    224.58551   -3152.8502   -2697.6061   -266.76815    12110.999 
   35900    293.50313    224.09125   -3136.3748   -2699.8112    179.73098    12113.333 
   35950    279.40537    223.57815   -3119.2715   -2703.6772    527.35524    12115.555 
   36000    299.44454    224.19785   -3139.9285   -2694.5274   -94.672016    12117.788 
   36050    301.04582    224.28009   -3142.6697   -2694.8869     -167.787    12119.798 
   36100    307.00677    224.43588   -3147.8628   -2691.2135   -268.29792    12121.474 
   36150    302.05382    224.19636   -3139.8787   -2690.5966   -108.43262    12122.789 
   36200    298.13497    224.11315   -3137.1052    -2693.652   -77.151711    12123.815 
   36250    285.65004    223.56285   -3118.7616   -2693.8788    361.62797      12124.6 
   36300    290.25139    223.78788   -3126.2626   -2694.5357     164.0085    12125.323 
   36350    295.03718    223.93192    -3131.064   -2692.2186   -100.36389    12125.917 
   36400    312.00746    224.37672   -3145.8906   -2681.8031   -518.08682    12126.204 
   36450    305.82788    224.19862    -3139.954   -2685.0582   -170.13378    12126.033 
   36500    300.72576    223.91808   -3130.6027   -2683.2959     232.9409    12125.539 
   36550    295.54897    223.75675   -3125.2249   -2685.6182    419.98161    12124.926 
   36600     299.1218    223.85633   -3128.5443   -2683.6232    294.17518    12124.293 
   36650    299.93699    223.82587   -3127.5289   -2681.3954    248.10891    12123.596 
   36700    304.46524    223.93224   -3131.0746   -2678.2057    78.807246    12122.798 
   36750    314.36707    224.27846   -3142.6155   -2675.0183   -85.240278    12121.796 
   36800     301.0346    223.62179   -3120.7263   -2672.9602    551.68413     12120.57 
   36850     302.7336    223.70968   -3123.6558   -2673.3626     533.7126    12119.373 
   36900    309.20326    223.91852   -3130.6172   -2670.7008    349.34806     12118.22 
   36950    310.73062    223.96233   -3132.0775   -2669.8893    351.97131    12117.025 
   37000    301.56038    223.66206   -3122.0687   -2673.5205    676.01801    12115.815 
   37050    305.42464    228.73008   -3124.3359   -2670.0399    677.73074    12114.717 
   37100    304.36108    228.55919   -3118.6396   -2665.9255      760.029    12113.772 
   37150    318.59143    229.05811   -3135.2703   -2661.3897    260.82255    12112.973 
   37200    313.81062    228.90752   -3130.2507   -2663.4812    413.46339    12112.132 
   37250    304.31219    228.54483    -3118.161   -2665.5197    808.32136    12111.299 
   37300    311.87729    228.75243   -3125.0809   -2661.1871    703.78628    12110.645 
   37350    310.83395     228.6372   -3121.2401   -2658.8982    769.99908    12110.172 
   37400    319.01078    228.83779   -3127.9265   -2653.4221      592.833    12109.852 
   37450    307.44998    228.39902   -3113.3006   -2655.9921    1014.2952    12109.667 
   37500    328.71818     229.0634   -3135.4467   -2646.5033    428.72757    12109.735 
   37550    311.55749    228.52744   -3117.5813   -2654.1632      1021.93     12109.88 
   37600    306.64545    228.29096   -3109.6986   -2653.5868    1318.9444    12110.332 
   37650     318.4441    228.65204   -3121.7348   -2648.0733    921.89319    12111.228 
   37700    302.89041    228.10284   -3103.4281   -2652.9016    1390.2625    12112.456 
   37750    314.90381    228.52794   -3117.5981   -2649.2025    1040.5121    12114.171 
   37800    312.74652    228.30034   -3110.0114   -2644.8246    1154.4074    12116.259 
   37850    305.69009    228.09166   -3103.0553   -2648.3645    1336.4941    12118.764 
   37900    325.45852    228.75194   -3125.0647   -2640.9698    744.28439    12121.721 
   37950    316.31475    228.42608   -3114.2028   -2643.7085    1006.0985    12124.917 
   38000    306.31178    228.09866   -3103.2887   -2647.6731    1185.4403    12128.433 
   38050    317.63217    228.39844   -3113.2813   -2640.8275    708.21971    12132.327 
   38100     321.9019    228.58727   -3119.5756   -2640.7709    450.29398    12136.406 
   38150    312.37126    228.35434   -3111.8112   -2647.1826    720.39292     12140.54 
   38200    324.05146    228.70678   -3123.5592   -2641.5572    344.42866    12144.812 
   38250    311.64566    228.34235   -3111.4116   -2647.8623    575.75446    12149.092 
   38300     308.8923    228.24498   -3108.1662   -2648.7123     606.1363    12153.458 
   38350    302.12387    227.93319   -3097.7731   -2648.3868    726.22718    12157.967 
   38400    316.15824    228.47783   -3115.9276   -2645.6661    244.03091    12162.613 
   38450     298.5162    227.97988   -3099.3295   -2655.3093    662.58622     12167.25 
   38500    308.05216    228.17102   -3105.7007   -2647.4965    406.24567    12172.011 
   38550    307.19729    228.19109   -3106.3696    -2649.437    304.15199    12176.808 
   38600    307.00639    228.16363   -3105.4543   -2648.8056    320.93537    12181.559 
   38650      294.032    227.84055    -3094.685   -2657.3347    616.05811    12186.308 
   38700    300.00752    228.00439   -3100.1464   -2653.9079     343.7947    12191.168 
   38750    309.75441    228.27152   -3109.0508   -2648.3146    5.6019852    12196.021 
   38800    302.22742    228.04759   -3101.5863   -2652.0459    233.52909    12200.688 
   38850    283.86678    227.50402   -3083.4674   -2661.2371    780.83273    12205.306 
   38900    315.26767    228.55799   -3118.5998    -2649.663   -212.40348    12210.074 
   38950    315.25646    228.53516   -3117.8388   -2648.9187   -323.11256     12214.57 
   39000    302.07485    228.04708   -3101.5694   -2652.2559    56.917596    12218.701 
   39050    299.21123    232.92314   -3097.4379   -2652.3839    87.974072    12222.638 
   39100    289.58181    232.72117   -3090.7057   -2659.9747    181.33516    12226.448 
   39150    299.03788    232.93718   -3097.9061   -2653.1099   -100.66258    12230.154 
   39200    290.69784    232.63813   -3087.9376   -2655.5466    149.51619    12233.652 
   39250    294.60137    232.74148   -3091.3826   -2653.1854   -11.969574    12237.022 
   39300    303.30224    233.14783   -3104.9278   -2653.7887   -349.58945    12240.178 
   39350    300.84451    233.00979   -3100.3262   -2652.8428   -266.01384    12242.975 
   39400    304.86383    233.23045   -3107.6816   -2654.2198   -439.61105    12245.419 
   39450    288.18276    232.61551   -3087.1837   -2658.5337   0.36974418    12247.474 
   39500    302.00848     233.0759   -3102.5301   -2653.3154    -487.7379    12249.274 
   39550    289.53346    232.58541   -3086.1803   -2655.5212   -93.103736    12250.668 
   39600    288.53028     232.5976   -3086.5866   -2657.4196   -81.968798    12251.787 
   39650    304.45704    233.17462   -3105.8207    -2652.964   -621.25088    12252.642 
   39700    295.07603    232.81611   -3093.8702    -2654.967   -244.99035    12253.002 
   39750    293.44675    232.76142   -3092.0473   -2655.5675   -196.76187    12253.009 
   39800    301.48822     233.0649   -3102.1634   -2653.7225   -456.48311    12252.694 
   39850    286.19475    232.53657   -3084.5523   -2658.8594    89.820629    12251.973 
   39900    285.76568    232.48956   -3082.9853   -2657.9305    132.76793     12251.08 
   39950    305.92473    233.20514   -3106.8379   -2651.7981   -493.44007    12250.023 
   40000    293.21133    232.74723   -3091.5742   -2655.4445    5.4059212    12248.553 
   40050    292.29704    232.81616   -3093.8721   -2659.1024    76.926855    12246.852 
   40100    298.36435    233.00343   -3100.1144     -2656.32   -42.971158    12244.988 
   40150    290.87247    232.67338   -3089.1127    -2656.462     273.4408    12242.919 
   40200    303.09383    232.98968   -3099.6561    -2648.827   -18.519119     12240.75 
   40250    296.48824    232.85921    -3095.307   -2654.3032    120.54944    12238.383 
   40300    307.69891    233.22425    -3107.475   -2649.7962   -220.58697    12235.831 
   40350    301.78979    233.05603   -3101.8675   -2652.9781   -51.468389    12232.986 
   40400    304.50511    233.20732   -3106.9107   -2653.9824   -38.297239    12229.872 
   40450    297.95441    232.99856   -3099.9521   -2656.7675    225.14426    12226.551 
   40500    307.49273     233.3319   -3111.0635   -2653.6914   -34.413763    12223.103 
   40550    298.54149    232.94997   -3098.3323   -2654.2744    260.47587    12219.451 
   40600    298.33917    232.91067   -3097.0223   -2653.2654    253.25598    12215.706 
   40650    315.07898    233.35676    -3111.892   -2643.2359   -169.08699    12211.857 
   40700    307.45657    233.20487    -3106.829   -2649.5107     149.6126    12207.731 
   40750    296.32623    232.90418    -3096.806   -2656.0432     498.1776    12203.487 
   40800    304.30067    233.22207   -3107.4022    -2654.778    287.70777    12199.271 
   40850    309.74159     233.3545   -3111.8166   -2651.0995    255.20848    12195.004 
   40900    308.52195    233.24143   -3108.0476   -2649.1446    444.50761    12190.665 
   40950      314.399    233.39222   -3113.0742   -2645.4295    378.92378    12186.322 
   41000    311.35181    233.34988   -3111.6628   -2648.5506    556.86423    12181.966 
   41050    287.49106    237.64852    -3088.284   -2660.6628    1342.1753    12177.722 
   41100    285.65767    237.53852   -3084.6173   -2659.7232    1394.6302    12173.974 
   41150    303.46935    238.08693   -3102.8976     -2651.51    766.84626    12170.758 
   41200    296.56907    237.91146   -3097.0487   -2655.9247    876.86201    12167.799 
   41250    300.84305    238.08408   -3102.8026   -2655.3214    768.02504    12165.092 
   41300    301.80091    238.15549   -3105.1831   -2656.2771    796.25764    12162.609 
   41350    292.85592    237.81292   -3093.7639   -2658.1629    1126.2886    12160.393 
   41400    304.37821    238.23004    -3107.668   -2654.9284     754.2941    12158.551 
   41450    293.51552    237.82727   -3094.2424   -2657.6603    1046.8153    12156.961 
   41500    293.90587    237.82611   -3094.2037    -2657.041    1001.5831    12155.725 
   41550    305.20087    238.17099   -3105.6995   -2651.7363     569.4275    12154.824 
   41600    315.09577    238.54291    -3118.097    -2649.416    325.96219    12154.038 
   41650     306.6919     238.2725   -3109.0832   -2652.9023    807.18449    12153.275 
   41700     301.5608    238.11572   -3103.8573   -2655.3084    1019.7128     12152.74 
   41750    295.57668    237.85814   -3095.2715   -2655.6236    1066.2437    12152.569 
   41800    300.23871    238.07608    -3102.536   -2655.9537    920.06392    12152.779 
   41850    301.48832    238.08666   -3102.8888   -2654.4477    1033.4609    12153.327 
   41900    305.30825    238.28019   -3109.3398   -2655.2169      971.167    12154.235 
   41950    311.72987    238.58757   -3119.5857   -2655.9112    735.08138    12155.481 
   42000    291.58484    237.88832   -3096.2773    -2662.567     1209.028        12157 
   42050    297.33116    233.00676   -3100.2253   -2657.9677    879.60809    12158.934 
   42100    306.82178    233.31107   -3110.3691   -2653.9949    535.33853    12161.158 
   42150    291.48678    232.82304   -3094.1014   -2660.5369    955.39263    12163.527 
   42200    302.38934    233.18956   -3106.3186   -2656.5373    571.21673    12166.174 
   42250    300.26393     233.0699   -3102.3301   -2655.7103    567.03166    12168.976 
   42300    292.84077    232.85044   -3095.0145   -2659.4361    690.42508    12171.909 
   42350    304.86493    233.24598   -3108.1994   -2654.7359    216.33343    12175.007 
   42400    313.12928    233.53751   -3117.9169   -2652.1609    -53.63077    12178.046 
   42450    290.56009    232.76639   -3092.2128   -2660.0267    648.05871    12180.921 
   42500    293.15168    232.92323   -3097.4411   -2661.4002    480.72479    12183.923 
   42550    304.62859    233.40462   -3113.4874   -2660.3755   -49.514971    12186.993 
   42600    294.22103    233.08576   -3102.8587   -2665.2272    273.58787    12189.895 
   42650    295.57802    233.08512   -3102.8372   -2663.1873    280.84534    12192.737 
   42700    296.71657    233.14904    -3104.968   -2663.6246    157.88059    12195.553 
   42750    282.26214    232.65364   -3088.4548   -2668.6112    550.43499    12198.306 
   42800    279.69733    232.57642   -3085.8808   -2669.8522    581.92812    12201.166 
   42850    293.00645    233.14225   -3104.7415   -2668.9167    96.345468    12204.139 
   42900    292.45824    233.12945   -3104.3152   -2669.3057    75.334593    12207.022 
   42950    294.27718    233.20308   -3106.7695   -2669.0545    56.908631     12209.76 
   43000    294.55928    233.25923    -3108.641   -2670.5064    26.656943    12212.352 
   43050     296.1054    233.25697   -3108.5658   -2668.1314   -73.543049    12214.788 
   43100    302.11395    233.47759   -3115.9198   -2666.5482   -392.61495    12216.983 
   43150    303.21369    233.57347   -3119.1158   -2668.1084   -400.42832    12218.778 
   43200    283.61684    232.91988   -3097.3292   -2675.4706     243.0961     12220.21 
   43250    290.52307    233.16471   -3105.4903   -2673.3592   -51.358766    12221.529 
   43300    292.63605      233.298   -3109.9334   -2674.6595    -240.7009     12222.65 
   43350    286.49976    233.13293   -3104.4308   -2678.2842   -118.73312    12223.471 
   43400    291.27489    233.33737   -3111.2455   -2677.9962    -312.2534    12224.007 
   43450    294.02349    233.38031    -3112.677   -2675.3393   -426.78968    12224.199 
   43500    289.33742    233.25968   -3108.6561   -2678.2886   -337.24562    12223.977 
   43550    290.75747    233.30635   -3110.2115   -2677.7318   -431.38884    12223.366 
   43600    295.60676    233.59032   -3119.6773   -2679.9847   -600.62013    12222.318 
   43650    284.21109    233.14833   -3104.9443   -2682.2018   -173.47061    12220.763 
   43700    282.00967    233.14504   -3104.8348   -2685.3668    -93.74559    12218.884 
   43750     277.8206    232.97564   -3099.1879   -2685.9508    67.932075    12216.772 
   43800    286.94427    233.24132   -3108.0439    -2681.236    -157.5879    12214.468 
   43850    283.80899    233.19856   -3106.6188   -2684.4744   -111.11528    12211.896 
   43900    288.59542    233.36538   -3112.1792   -2682.9154   -302.22538    12209.033 
   43950    290.32763    233.39375    -3113.125   -2681.2846   -369.23655    12205.793 
   44000    291.29942    233.44556   -3114.8519   -2681.5661    -343.3565    12202.134 
   44050    292.46892    238.50369   -3116.7896   -2681.7643   -276.99984    12198.085 
   44100     284.4354    238.29694   -3109.8982   -2686.8221     32.36972    12193.695 
[...]
   89400    310.73196    234.03671    -3134.557   -2672.3668    881.41865    12061.774 
   89450    304.78483    233.77985   -3125.9951   -2672.6508    1042.8414    12062.914 
   89500    292.38417    233.40612   -3113.5374   -2678.6381    1416.0402    12064.422 
   89550    298.64429    233.58873   -3119.6244   -2675.4136    1199.8081    12066.467 
   89600     299.1613    233.60723    -3120.241   -2675.2612    1039.5323    12068.993 
   89650    309.96518    234.15021   -3138.3404   -2677.2907    686.00677    12071.844 
   89700    294.66399    233.56101   -3118.7002   -2680.4098    1237.2168    12074.943 
   89750    308.46982     234.0789   -3135.9633   -2677.1378    724.88227    12078.464 
   89800    308.84652    234.15919   -3138.6398    -2679.254    671.83239    12082.204 
   89850    288.07816    233.33113   -3111.0378   -2682.5433    1339.8283    12086.163 
   89900    298.33895    233.72238   -3124.0793   -2680.3228    858.50533    12090.602 
   89950    312.21907    234.37845   -3145.9484   -2681.5462    256.94051     12095.31 
   90000    296.27451    233.77314   -3125.7713   -2685.0854    755.39904    12100.036 
   90050    291.95313    228.69271   -3123.0903   -2688.8321     791.5896    12104.952 
   90100    313.55475    229.50276   -3150.0919    -2683.703   -6.4488454    12110.056 
   90150    306.76197    229.19276   -3139.7587   -2683.4735    154.75532    12115.027 
   90200    296.95191    228.84463   -3128.1543   -2686.4608    398.92879    12119.876 
   90250    294.80768    228.81998   -3127.3326   -2688.8286    268.20318    12124.721 
   90300    300.70109    229.04017   -3134.6725   -2687.4024   -110.71852    12129.523 
   90350     299.9776    229.01132   -3133.7107   -2687.5168   -179.75658    12134.096 
   90400    296.47934    228.96661   -3132.2202   -2691.2296   -142.55649    12138.382 
   90450    288.11234     228.6527   -3121.7568   -2693.2115    90.848081    12142.415 
   90500    286.31485    228.61193   -3120.3978   -2694.5262     104.4171    12146.283 
   90550    286.83223    228.65932   -3121.9773   -2695.3361    97.036239    12150.027 
   90600    280.96606    228.44836   -3114.9452   -2697.0295    303.17217    12153.641 
   90650    287.70327    228.66706   -3122.2354   -2694.2986    28.333297    12157.189 
   90700    291.03955    228.84296   -3128.0986   -2695.1994   -271.05362     12160.57 
   90750    295.58725    229.03123   -3134.3743   -2694.7107   -512.22723    12163.603 
   90800    306.28133    229.42488    -3147.496   -2691.9258   -874.77845    12166.143 
   90850    300.04214    229.15547   -3138.5157   -2692.2258   -674.67313    12168.046 
   90900    294.88629    229.04216   -3134.7386   -2696.1175   -481.89171    12169.357 
   90950    290.48223    228.93804    -3131.268   -2699.1977   -335.87541    12170.201 
   91000    289.28299    228.82748   -3127.5828   -2697.2962   -293.94811    12170.664 
   91050    300.40702    229.26618    -3142.206   -2695.3733   -684.28747    12170.723 
   91100     284.6467    228.70542    -3123.514   -2700.1236   -172.19846    12170.275 
   91150      289.851    228.88844   -3129.6148   -2698.4834   -171.61266    12169.486 
   91200    291.25997     228.8894   -3129.6465   -2696.4194   -227.41464    12168.406 
   91250    289.72557    228.79724   -3126.5747   -2695.6298   -292.61412    12166.985 
   91300    284.80611    228.76189   -3125.3963   -2701.7688   -241.53327    12165.192 
   91350    288.88291       228.94   -3131.3333   -2701.6418    -303.7152    12163.047 
   91400    286.32152     228.8308   -3127.6934   -2701.8119   -92.432698    12160.539 
   91450    280.18869    228.64096   -3121.3655    -2704.606    98.724329    12157.781 
   91500    289.15701    228.90293   -3130.0977   -2699.9986   -227.60467    12154.835 
   91550    295.63036     229.0191     -3133.97   -2694.2423   -452.37507    12151.566 
   91600    295.93309     229.0701   -3135.6701   -2695.4921   -451.02919    12147.839 
   91650    304.17807    229.45843   -3148.6144   -2696.1725   -664.16755    12143.611 
   91700    285.69695    228.78892   -3126.2973   -2701.3447    22.939257    12138.857 
   91750    283.68514     228.7719   -3125.7299   -2703.7698    217.90472    12133.871 
   91800    298.72255    229.17829   -3139.2764   -2694.9493   -16.107209    12128.757 
   91850    282.75559    228.54218   -3118.0726   -2697.4951    660.72153    12123.467 
   91900    288.71952    228.80578   -3126.8595   -2697.4111    458.66144    12118.269 
   91950    299.99354    229.15983   -3138.6608   -2692.4432    47.869366    12113.082 
   92000    301.47262    229.24088   -3141.3625   -2692.9448    66.000859    12107.698 
   92050    304.62588    229.35689   -3145.2297   -2692.1218    53.703241    12102.114 
   92100     293.4351    228.95353   -3131.7843   -2695.3218      448.473    12096.345 
   92150    290.33304    228.86618   -3128.8728   -2697.0244    588.54876    12090.576 
   92200    293.34584    228.91807   -3130.6024   -2694.2727    588.75935    12084.898 
   92250    303.27575    229.20062   -3140.0207    -2688.921    441.14297    12079.288 
   92300    314.85919     229.5041   -3150.1366   -2681.8074    203.75156    12073.679 
   92350    313.57926    229.33893   -3144.6311   -2678.2057    454.71813    12067.962 
   92400    292.37633    228.57803   -3119.2676   -2684.3799    1254.2567    12062.294 
   92450    299.04786    228.81103   -3127.0342   -2682.2232    1137.9082    12057.014 
   92500    312.87029    229.15768   -3138.5893   -2673.2185    753.89907    12052.108 
   92550    316.61679    229.25854   -3141.9514   -2671.0079    715.98556    12047.374 
   92600    304.76262    228.83065   -3127.6883    -2674.377    1175.3775    12042.817 
   92650    329.07632    229.67072   -3155.6908   -2666.2147    579.81695    12038.578 
   92700    305.45419    228.80532   -3126.8441   -2672.5041    1436.0732    12034.507 
   92750    308.39678    228.83316   -3127.7719   -2669.0551    1462.0199    12030.918 
   92800    314.22172    228.89715   -3129.9048   -2662.5239    1468.0171    12027.868 
   92850    313.88382    228.86978   -3128.9926   -2662.1142    1549.2848     12025.37 
   92900    312.27593    228.81395   -3127.1317   -2662.6449    1633.9855    12023.474 
   92950    317.33425    228.99315   -3133.1051   -2661.0945    1520.6164    12022.197 
   93000    312.19425    228.72235   -3124.0784   -2659.7131    1688.1015    12021.509 
   93050    313.90991    228.71355   -3123.7851   -2656.8679    1646.5995    12021.485 
   93100    330.42756     229.2308   -3141.0266   -2649.5406    1206.6663    12022.097 
   93150    318.47491    228.82768   -3127.5893    -2653.882    1530.3738    12023.175 
   93200     324.4863    229.01379   -3133.7929   -2651.1441    1441.4788    12024.805 
   93250    311.83721    228.60149   -3120.0496   -2656.2153    1909.0528    12027.014 
   93300    315.60083    228.68846   -3122.9486   -2653.5163    1838.7366    12030.002 
   93350     321.2387    228.92124   -3130.7079   -2652.8897    1582.9355    12033.745 
   93400    320.95636    228.95653   -3131.8845   -2654.4862    1462.7411     12038.13 
   93450    326.07532    229.05725   -3135.2416   -2650.2292    1198.3166    12043.082 
   93500    318.17046    228.75457   -3125.1523   -2651.8978    1375.4274    12048.491 
   93550    308.14477    228.49052   -3116.3506   -2658.0086    1646.6509    12054.437 
   93600     315.5755    228.77047   -3125.6822   -2656.2876    1229.8889    12061.043 
   93650    331.72044    229.23087   -3141.0291   -2647.6201    699.51056    12068.094 
   93700     310.0765     228.5829   -3119.4302   -2658.2149    1285.6799    12075.377 
   93750    305.92171    228.41129   -3113.7095   -2658.6742    1332.9837    12083.125 
   93800    312.98978    228.69673   -3123.2244   -2657.6758    958.61069    12091.377 
   93850    300.50544    228.24028   -3108.0092   -2661.0301    1299.6681    12100.007 
   93900    299.71567    228.24071   -3108.0236   -2662.2192    1188.8282    12109.129 
   93950    316.87946    228.83863   -3127.9544   -2656.6203    432.84852    12118.686 
   94000    307.33503    228.49762   -3116.5872   -2659.4496    523.96402    12128.354 
   94050    311.13713    228.60007   -3120.0024   -2657.2095    286.51668    12138.082 
   94100    312.91644    228.77259   -3125.7529   -2660.3134    118.29201      12147.8 
   94150    292.62109    228.05443   -3101.8143   -2666.5626    733.38429    12157.448 
   94200    297.53183    228.21564   -3107.1882   -2664.6321    519.76495    12167.271 
   94250    313.65354    228.77608   -3125.8692   -2659.3334   -194.01698    12177.176 
   94300    306.74154    228.62109   -3120.7029   -2664.4481   -161.04284    12186.834 
   94350    300.91353    228.38939   -3112.9797   -2665.3936   -83.121166     12196.21 
   94400    291.02848    228.08294   -3102.7648    -2669.882    80.820039    12205.362 
   94450    302.37798    228.49153   -3116.3845   -2666.6201   -381.88588    12214.337 
   94500    292.12754     228.1261   -3104.2034   -2669.6858   -261.74604    12222.961 
   94550     296.4151    228.26438   -3108.8126   -2667.9176   -511.53465    12231.242 
   94600    294.36997    228.23745   -3107.9152   -2670.0621   -617.89411    12239.067 
   94650    299.98196    228.46955   -3115.6517   -2669.4513   -871.50329     12246.35 
   94700    291.77362    228.23919   -3107.9732    -2673.982   -722.28023     12252.99 
   94750    294.79398    228.37334   -3112.4447    -2673.961   -880.81891    12259.008 
   94800    287.70314    228.08418    -3102.806   -2674.8694    -713.5535    12264.369 
   94850    303.22519     228.6322   -3121.0733   -2670.0488   -1219.9183    12269.096 
   94900    290.66203    228.25755   -3108.5849   -2676.2471   -904.63541    12272.993 
   94950    285.88168    228.17436   -3105.8121   -2680.5848    -775.9265    12276.162 
   95000    296.33648    228.44851   -3114.9502   -2674.1722   -1114.5004    12278.683 
   95050    287.16228    233.10373   -3103.4576   -2676.3255    -930.8285    12280.425 
   95100    291.51397    233.26253   -3108.7511   -2675.1461   -1119.5153    12281.422 
   95150    284.13623    232.99712    -3099.904   -2677.2729   -922.16315    12281.636 
   95200    287.68753    233.12042   -3104.0141   -2676.1007   -965.60793    12281.123 
   95250    273.77921    232.59747   -3086.5822   -2679.3564   -439.55556    12279.905 
   95300    287.92018    233.16091   -3105.3638   -2677.1043   -808.20092    12278.187 
   95350    279.77293     232.8631   -3095.4366   -2679.2956   -501.95141    12275.884 
   95400    273.08389    232.59705   -3086.5683   -2680.3767   -241.00941    12273.107 
   95450    292.86541    233.38693   -3112.8978   -2677.2827    -850.4413    12269.939 
   95500    276.56715    232.73528   -3091.1759   -2679.8032   -290.95372    12266.177 
   95550    281.05816    232.99828   -3099.9427     -2681.89   -440.00757    12262.006 
   95600    297.34373     233.4193   -3113.9768   -2671.7006   -909.79718    12257.383 
   95650    302.10661    233.55114   -3118.3712   -2669.0105   -993.25346    12252.064 
   95700    307.17601    233.68266   -3122.7553   -2665.8542   -1070.5065    12245.984 
   95750    301.21203    233.52697   -3117.5656   -2669.5356   -769.80144    12239.113 
   95800    287.70085    233.12129    -3104.043   -2676.1098   -167.86523      12231.6 
   95850     285.0098    232.93074   -3097.6915    -2673.761    30.534277    12223.781 
   95900    300.80691    233.46636   -3115.5454   -2668.1179   -483.34259    12215.725 
   95950    296.83349    233.24129    -3108.043   -2666.5257   -217.48388    12207.239 
   96000     290.9973    233.13604   -3104.5346   -2671.6982    147.34995    12198.417 
   96050    301.20224    233.55066   -3118.3554   -2670.3399   -167.63675    12189.419 
   96100    307.21945    233.76206    -3125.402   -2668.4364   -238.38858    12180.127 
   96150    289.75183    233.09478   -3103.1594   -2672.1756    528.85375    12170.532 
   96200    305.27466    233.59439   -3119.8129   -2665.7399    173.38442    12160.959 
   96250    321.87591    234.07613    -3135.871    -2657.105   -221.79541    12151.263 
   96300     301.7401    233.38154   -3112.7179   -2663.9023    605.12663    12141.279 
   96350    308.12576    233.66009   -3122.0029   -2663.6892    555.23577    12131.346 
   96400    306.92623    233.63707   -3121.2356   -2664.7061    616.31515    12121.515 
   96450    310.40705    233.61651   -3120.5504   -2658.8434    609.29204      12111.8 
   96500     303.3089    233.47087   -3115.6957   -2664.5467    821.81085    12102.212 
   96550    297.82547    233.23972   -3107.9906   -2664.9978    1196.4803    12092.856 
   96600    306.42049    233.50038   -3116.6794   -2660.9021    1184.0748    12083.915 
   96650    317.84872    233.90157   -3130.0523   -2657.2764    968.98288    12075.395 
   96700    306.09679    233.35774   -3111.9246   -2656.6288    1441.7394    12067.218 
   96750    320.17448    233.89056   -3129.6855   -2653.4502    1102.3886    12059.549 
   96800    317.26185    233.89233   -3129.7443   -2657.8413    1138.2946    12052.298 
   96850    321.46064     234.0225   -3134.0832   -2655.9348    1085.1711    12045.428 
   96900    314.52599    233.84373   -3128.1243   -2660.2908    1424.4106    12038.944 
   96950    304.74526    233.57074   -3119.0248   -2665.7393    1803.2488    12033.016 
   97000    316.78177    233.97077   -3132.3591   -2661.1702    1440.6781    12027.798 
   97050    313.54053    228.94286   -3131.4286   -2665.0608    1493.8724    12023.151 
   97100    307.08365    228.74374   -3124.7912   -2668.0275     1651.744    12019.069 
   97150    295.08366    228.30406   -3110.1353   -2671.2207    2075.1347    12015.679 
   97200    308.89967    228.74486   -3124.8286   -2665.3638    1704.1607    12013.125 
   97250    315.98715    229.00189   -3133.3965   -2663.3895    1528.6031    12011.266 
   97300    316.63484    229.03759   -3134.5865   -2663.6162    1555.4669    12009.994 
   97350    314.17755    228.93328   -3131.1092   -2663.7939    1620.9179    12009.322 
   97400    324.94942    229.35589   -3145.1962   -2661.8586    1275.7991    12009.279 
   97450    318.38478    229.10327   -3136.7758   -2663.2025     1547.243    12009.719 
   97500    310.13926    228.75877   -3125.2923   -2663.9837    1793.6575    12010.748 
   97550    316.81377    228.99372   -3133.1239   -2661.8874    1495.9952    12012.475 
   97600    316.99975    228.99307   -3133.1024   -2661.5893    1449.4465    12014.786 
   97650    321.62566    229.21627   -3140.5424   -2662.1486    1292.0061    12017.636 
   97700    314.58544     228.9529   -3131.7633   -2663.8413    1493.7851    12020.984 
   97750    309.29436    228.84855   -3128.2851   -2668.2332    1517.7237    12024.908 
   97800    309.12599    228.91483   -3130.4943   -2670.6928    1404.4333    12029.413 
   97850    304.14161    228.73445   -3124.4817   -2672.0941    1498.8624    12034.471 
   97900    315.02472    229.12983   -3137.6611   -2669.0857    1084.9668    12040.093 
   97950    316.91609    229.22419   -3140.8062   -2669.4176    920.19867    12046.097 
   98000    313.34845    229.14204   -3138.0679   -2671.9858    928.51792    12052.386 
   98050    308.63039    233.96034   -3132.0115   -2672.9471    1056.1457    12058.968 
   98100    303.87727    233.75861   -3125.2871   -2673.2927    1195.9489    12065.938 
   98150    306.43109    233.93296   -3131.0986   -2675.3056    877.00017     12073.35 
   98200    307.85785    233.99678   -3133.2261   -2675.3109    594.80595    12081.041 
   98250    305.88895    233.93107   -3131.0356    -2676.049    567.08863     12088.87 
   98300    301.78419    233.84638   -3128.2128   -2679.3317    623.25026    12096.827 
   98350    292.06899    233.57068   -3119.0228   -2684.5923    890.79657    12104.936 
   98400    287.83989    233.37384   -3112.4613   -2684.3213    898.81495    12113.355 
   98450    316.43249    234.40634   -3146.8781   -2676.2088   -178.95973    12122.011 
   98500    294.50202    233.55174   -3118.3914   -2680.3419    370.73368    12130.484 
   98550    293.32123    233.57666   -3119.2219   -2682.9288     301.8892    12138.933 
   98600    296.38316    233.73499   -3124.4995    -2683.652    51.011876    12147.374 
   98650    301.06688    233.93622   -3131.2073   -2683.3931   -278.14762    12155.661 
   98700      310.902    234.29728   -3143.2427   -2680.7995    -591.5501    12163.604 
   98750    282.93324    233.25806   -3108.6018   -2687.7601    332.64623    12171.123 
   98800    290.48514    233.53086   -3117.6954   -2685.6208     39.89131    12178.563 
   98850     297.5568    233.87511   -3129.1703   -2686.5771    -426.4784    12185.851 
   98900    277.38308    233.11769   -3103.9228   -2691.3365    62.077533    12192.769 
   98950    284.67844    233.31533   -3110.5111   -2687.0735   -247.72981    12199.487 
   99000    295.86747    233.67259   -3122.4195   -2682.3391    -730.8013    12205.901 
   99050    285.39174    238.30424   -3110.1413   -2685.6427    -408.8492    12211.783 
   99100    285.41136    238.33456   -3111.1521   -2686.6244   -303.48127    12217.252 
   99150    288.77276    238.52816   -3117.6052   -2688.0776   -449.02743     12222.37 
   99200    283.38221    238.31487   -3110.4956   -2688.9861   -365.25255     12227.08 
   99250    277.97485    238.08661   -3102.8871   -2689.4206    -327.6496    12231.423 
   99300    295.07479    238.71175   -3123.7249   -2684.8236   -1007.2286     12235.37 
   99350    297.39583    238.76407   -3125.4692   -2683.1154    -1095.074    12238.617 
   99400     281.5444    238.23891   -3107.9638   -2689.1878   -612.98043    12241.111 
   99450    279.18933      238.139   -3104.6332   -2689.3602   -526.32798    12243.068 
   99500    269.16716     237.8039   -3093.4634   -2693.0977   -242.96304    12244.575 
   99550    281.07542    238.23669   -3107.8896   -2689.8112   -587.90696    12245.741 
   99600    277.07741    238.02688   -3100.8961   -2688.7645   -502.84342    12246.441 
   99650    284.38271    238.24184   -3108.0614   -2685.0637   -761.71027    12246.661 
   99700    294.53565    238.64458   -3121.4859   -2683.3864   -1037.2689    12246.288 
   99750     280.5925    238.04558   -3101.5194   -2684.1593    -493.5795    12245.205 
   99800    294.23069    238.50093   -3116.6976   -2679.0518   -857.97914    12243.608 
   99850    289.80568    238.27349   -3109.1163   -2678.0523   -635.14947    12241.401 
   99900    284.99781    238.05167   -3101.7225   -2677.8098   -406.95189    12238.662 
   99950    293.07159     238.3186   -3110.6201   -2674.6983   -615.10356    12235.493 
  100000    295.07914    238.34548   -3111.5159   -2672.6081   -570.68889    12231.817 
Loop time of 27.0193 on 1 procs for 100000 steps with 500 atoms

Performance: 319.771 ns/day, 0.075 hours/ns, 3701.055 timesteps/s
99.8% CPU use with 1 MPI tasks x 1 OpenMP threads

MPI task timing breakdown:
Section |  min time  |  avg time  |  max time  |%varavg| %total
---------------------------------------------------------------
Pair    | 21.904     | 21.904     | 21.904     |   0.0 | 81.07
Bond    | 0.006685   | 0.006685   | 0.006685   |   0.0 |  0.02
Neigh   | 0.5277     | 0.5277     | 0.5277     |   0.0 |  1.95
Comm    | 0.78778    | 0.78778    | 0.78778    |   0.0 |  2.92
Output  | 0.018595   | 0.018595   | 0.018595   |   0.0 |  0.07
Modify  | 2.7311     | 2.7311     | 2.7311     |   0.0 | 10.11
Other   |            | 1.044      |            |       |  3.86

Nlocal:    500 ave 500 max 500 min
Histogram: 1 0 0 0 0 0 0 0 0 0
Nghost:    1580 ave 1580 max 1580 min
Histogram: 1 0 0 0 0 0 0 0 0 0
Neighs:    14460 ave 14460 max 14460 min
Histogram: 1 0 0 0 0 0 0 0 0 0

Total # of neighbors = 14460
Ave neighs/atom = 28.92
Ave special neighs/atom = 0
Neighbor list builds = 634
Dangerous builds = 0

write_data      ${walker}/final_restart_file
write_data      11/final_restart_file

quit
