LAMMPS (19 May 2017)
Processor partition = 11
  using 1 OpenMP thread(s) per MPI task
# gREM variables
variable        lambda world 1000 1005 1010 1015 1020 1025 1030 1035 1040 1045 1050 1055 1060 1065 1070 1075
variable        walker world 0 1 2 3 4 5 6 7 8 9 10 11 12 13 14 15
variable        replica world 4 9 1 7 0 12 3 5 8 13 14 6 15 11 2 10

variable        T0 equal 300.0
variable        press equal 0.0

units           real
atom_style      full
pair_style      lj/cut 5.0

# LJ particles
read_data       ${walker}/restart_file
read_data       11/restart_file
  orthogonal box = (1.01356 1.01356 1.01356) to (23.9864 23.9864 23.9864)
  1 by 1 by 1 MPI processor grid
  reading atoms ...
  500 atoms
  reading velocities ...
  500 velocities
  0 = max # of 1-2 neighbors
  0 = max # of 1-3 neighbors
  0 = max # of 1-4 neighbors
  1 = max # of special neighbors

#dump            dump all xyz 1000 ${walker}/dump.xyz

fix             fxnpt all npt temp ${T0} ${T0} 1000.0 iso ${press} ${press} 10000.0
fix             fxnpt all npt temp 300 ${T0} 1000.0 iso ${press} ${press} 10000.0
fix             fxnpt all npt temp 300 300 1000.0 iso ${press} ${press} 10000.0
fix             fxnpt all npt temp 300 300 1000.0 iso 0 ${press} 10000.0
fix             fxnpt all npt temp 300 300 1000.0 iso 0 0 10000.0
fix             fxgREM all grem ${lambda} -.03 -30000 fxnpt
fix             fxgREM all grem 1055 -.03 -30000 fxnpt
thermo_modify   press fxgREM_press

thermo          50
thermo_style    custom step temp f_fxgREM pe etotal press vol
WARNING: New thermo_style command, previous thermo_modify settings will be lost (../output.cpp:705)
timestep        1.0

temper/grem     100000 1000 ${lambda} fxgREM fxnpt 10294 98392 ${walker}
temper/grem     100000 1000 1055 fxgREM fxnpt 10294 98392 ${walker}
temper/grem     100000 1000 1055 fxgREM fxnpt 10294 98392 11
Neighbor list info ...
  update every 1 steps, delay 10 steps, check yes
  max neighbors/atom: 2000, page size: 100000
  master list distance cutoff = 7
  ghost atom cutoff = 7
  binsize = 3.5, bins = 7 7 7
  1 neighbor lists, perpetual/occasional/extra = 1 0 0
  (1) pair lj/cut, perpetual
      attributes: half, newton on
      pair build: half/bin/newton
      stencil: half/bin/3d/newton
      bin: standard
Per MPI rank memory allocation (min/avg/max) = 5.723 | 5.723 | 5.723 Mbytes
Step Temp f_fxgREM PotEng TotEng Press Volume 
       0    318.43359    249.26449   -3142.1496   -2668.5038   -20.556338    12124.013 
      50    307.79505    248.84092   -3128.0306   -2670.2088    390.04725    12123.919 
     100    285.59554      248.067   -3102.2335   -2677.4318     1083.691    12123.902 
     150    287.93429    248.17005   -3105.6682   -2677.3877     967.5882    12124.267 
     200    289.30391    248.20783   -3106.9276     -2676.61    898.62867    12125.016 
     250    299.48771    248.52608   -3117.5359   -2672.0706     528.5902     12126.08 
     300    293.26605    248.36386   -3112.1288   -2675.9178    717.13528    12127.313 
     350    287.56992    248.00323   -3100.1076   -2672.3692    1042.8279    12128.795 
     400    287.60112    247.97071   -3099.0238   -2671.2389    1040.0778    12130.659 
     450    290.35799    248.01654   -3100.5514   -2668.6659     838.8474    12132.934 
     500    301.28606    248.49583   -3116.5277   -2668.3876    382.09661    12135.493 
     550    299.81572    248.43765   -3114.5883   -2668.6351    487.61932    12138.137 
     600    288.37111    248.02705   -3100.9016   -2671.9714    920.84574     12140.91 
     650    286.92277    248.03551   -3101.1835   -2674.4077     927.0002    12144.001 
     700    280.41083    247.79531    -3093.177   -2676.0871    1035.4208    12147.471 
     750     302.1135    248.49329   -3116.4431   -2667.0721    337.31916    12151.298 
     800    284.89383    247.78402   -3092.8008   -2669.0428    806.55303    12155.234 
     850    301.42121    248.35001   -3111.6668   -2663.3256    269.09691    12159.375 
     900    296.36449    248.06481   -3102.1603   -2661.3406    439.75593    12163.574 
     950    292.12944    248.02241   -3100.7469   -2666.2265    604.99489    12167.845 
    1000    296.31378     248.0553   -3101.8435   -2661.0992    484.92523    12172.284 
    1050    312.56943    243.62572   -3120.8573   -2655.9339   -195.34454    12176.791 
    1100      302.869    243.29089   -3109.6964   -2659.2017     50.71326    12181.092 
    1150    296.85704    243.08631   -3102.8771   -2661.3247    329.41409     12185.25 
    1200     288.7304    242.73804   -3091.2681   -2661.8035    585.07899    12189.421 
    1250    285.65285     242.6172     -3087.24    -2662.353    708.86993    12193.742 
    1300    291.32994    242.66198   -3088.7326   -2655.4014    606.61635    12198.282 
    1350    306.30231    243.06073   -3102.0243   -2646.4228    95.818288    12202.971 
    1400    308.42763    243.09761   -3103.2538   -2644.4911   -25.064194    12207.554 
    1450    294.92584    242.62308   -3087.4361   -2648.7563    345.29601    12211.983 
    1500     303.5155    242.94821   -3098.2737   -2646.8174    46.054905    12216.389 
    1550     297.9412    242.71299    -3090.433   -2647.2681    243.88634    12220.687 
    1600    292.03284     242.3789   -3079.2965   -2644.9198    562.34799    12224.955 
    1650    290.66231    242.27121   -3075.7069   -2643.3688    652.31237    12229.344 
    1700    306.98422    242.80979   -3093.6595   -2637.0438     180.9618    12233.882 
    1750    310.03583    242.88743   -3096.2476   -2635.0928    148.89678    12238.378 
    1800       308.53    242.67269   -3089.0896   -2630.1746    231.27313    12242.792 
    1850    306.98001    242.58944   -3086.3146   -2629.7051    166.78785    12247.159 
    1900    298.55383    242.22914   -3074.3047   -2630.2285    403.24389     12251.46 
    1950    303.47536    242.38478   -3079.4925   -2628.0959    279.81115    12255.771 
    2000    296.20246    242.13018   -3071.0059   -2630.4272    549.10575    12260.094 
    2050    287.99839    241.72408   -3057.4693   -2629.0935    917.42394    12264.557 
    2100    299.47014    242.08955   -3069.6516   -2624.2125    571.86357    12269.324 
    2150    303.03351    242.24508   -3074.8358   -2624.0965    348.82468    12274.243 
    2200     311.8474    242.37216    -3079.072   -2615.2226     86.57012    12279.172 
    2250    306.45834     242.1446   -3071.4868   -2615.6532    228.84027    12284.003 
    2300    312.68872    242.36427   -3078.8091   -2613.7084    85.982109    12288.756 
    2350    292.23709    241.60418   -3053.4726   -2618.7921    700.33492    12293.437 
    2400    298.84175    241.82517   -3060.8391   -2616.3347    442.84543    12298.261 
    2450    295.16308    241.69303   -3056.4344   -2617.4017    458.80835    12303.203 
    2500     319.8156    242.59338    -3086.446   -2610.7445   -271.65764    12308.177 
    2550     316.0193    242.34192   -3078.0641   -2608.0094   -59.277659    12312.879 
    2600    290.72292     241.4301   -3047.6699   -2615.2416    639.69675    12317.399 
    2650    313.74103    242.30447   -3076.8157   -2610.1497   -174.49273    12322.006 
    2700    311.29308    242.28367   -3076.1224   -2613.0975   -150.73233    12326.397 
    2750     310.8178    242.22319   -3074.1063   -2611.7883   -35.868452    12330.524 
    2800    315.16791    242.33111   -3077.7038   -2608.9154   -154.11208    12334.437 
    2850     310.7977    242.14347   -3071.4491   -2609.1611   -160.51474    12338.097 
    2900    308.27347    242.03249   -3067.7497   -2609.2163   -162.38394    12341.481 
    2950    302.46819     241.7577     -3058.59   -2608.6915    8.8899359    12344.615 
    3000    310.97243    242.07703   -3069.2345   -2606.6866   -288.80409    12347.551 
    3050    308.19928    247.02556   -3067.5187   -2609.0956   -269.86944    12350.168 
    3100    302.19413    246.82939   -3060.9795   -2611.4887   -108.80891    12352.476 
    3150    294.86123    246.50587   -3050.1957   -2611.6119    82.637799    12354.574 
    3200     305.2028    246.84199   -3061.3996   -2607.4335   -332.55439    12356.516 
    3250    300.82082    246.68162   -3056.0541   -2608.6059   -243.34176    12358.123 
    3300    288.60671    246.30113    -3043.371   -2614.0904    108.44835    12359.452 
    3350    303.86583    246.80045    -3060.015   -2608.0376   -376.87307    12360.618 
    3400     308.0118    246.97184   -3065.7282   -2607.5839   -494.84061    12361.416 
    3450    290.64132    246.37823   -3045.9409    -2613.634    131.84315    12361.812 
    3500    277.52507     245.8611   -3028.7033   -2615.9058    618.21446    12362.122 
    3550    296.95935    246.64699   -3054.8995    -2613.195   -133.16257    12362.553 
    3600    306.08412    246.81444   -3060.4814   -2605.2044   -487.98585    12362.775 
    3650    303.59897    246.77779   -3059.2596   -2607.6792   -431.38497    12362.565 
    3700     290.9443    246.36899   -3045.6328   -2612.8752    36.067623    12361.976 
    3750    296.07113    246.54781   -3051.5937   -2611.2104   -44.589172    12361.209 
    3800    304.63273    246.81659   -3060.5529   -2607.4348   -327.33666    12360.247 
    3850    304.67868    246.91187    -3063.729   -2610.5425   -483.42505    12358.943 
    3900    311.93562    247.21055   -3073.6849   -2609.7043   -692.08015    12357.188 
    3950    299.64995    246.78481   -3059.4935   -2613.7869   -186.57522     12354.93 
    4000    301.52297    246.87144   -3062.3814   -2613.8888   -250.58376     12352.36 
    4050     309.6102    242.14196   -3071.3987    -2610.877   -583.32039    12349.461 
    4100    309.79233    242.06313   -3068.7711   -2607.9785   -416.87712    12346.071 
    4150    304.06788    241.91075   -3063.6918   -2611.4138   -101.94045    12342.275 
    4200    293.36574    241.61515   -3053.8385   -2617.4792    240.82976    12338.249 
    4250    297.40416    241.75743    -3058.581   -2616.2148    187.11007    12334.151 
    4300    302.71472    241.95358   -3065.1194   -2614.8542    68.974442    12329.977 
    4350    290.81505    241.47101   -3049.0338   -2616.4685    428.92758    12325.703 
    4400    304.74546    241.92788   -3064.2627   -2610.9769   -2.6794094     12321.45 
    4450    313.44543    242.23875   -3074.6251   -2608.3987   -255.18496     12317.02 
    4500    297.16923    241.62096   -3054.0319   -2612.0152    319.15656    12312.303 
    4550     305.1303     241.9569   -3065.2302    -2611.372    72.854348    12307.543 
    4600    311.67766    242.24862    -3074.954   -2611.3571   -173.92103    12302.662 
    4650    314.18374    242.44489   -3081.4964   -2614.1719   -224.03087      12297.5 
    4700     308.7232    242.26201   -3075.4004   -2616.1981    9.0606429    12292.046 
    4750    308.60569    242.22164   -3074.0547   -2615.0271    25.560629    12286.409 
    4800    317.46989    242.52845   -3084.2816   -2612.0692   -225.09823    12280.583 
    4850    315.50092    242.42928   -3080.9761   -2611.6924   -35.976427    12274.461 
    4900    308.72014    242.21057   -3073.6856   -2614.4878     269.1949    12268.143 
    4950    308.05186    242.24551   -3074.8502   -2616.6464     368.8701    12261.789 
    5000    311.63285    242.37742   -3079.2474   -2615.7172    237.97664    12255.452 
    5050    316.34117    247.65033   -3088.3442   -2617.8107    23.590873    12249.056 
    5100    291.29931    246.91328   -3063.7761   -2630.4905    876.69025    12242.579 
    5150    299.48162    247.32922   -3077.6407   -2632.1844    691.66773    12236.361 
    5200    310.54743    247.69945   -3089.9817   -2628.0659    384.47182    12230.354 
    5250    298.63764    247.30128   -3076.7094   -2632.5086    802.21273     12224.43 
    5300     293.8442    247.17986    -3072.662    -2635.591    940.05314    12218.785 
    5350     304.5634    247.63197   -3087.7323   -2634.7173    652.99971    12213.475 
    5400     299.9531    247.45055   -3081.6851   -2635.5276    816.92352    12208.406 
    5450    301.47581    247.61264   -3087.0879   -2638.6655    723.51529    12203.591 
    5500    299.85207    247.61585   -3087.1951   -2641.1879    732.33876    12199.014 
    5550     302.6249    247.75986   -3091.9955   -2641.8639    635.63492    12194.675 
    5600    285.52655    247.17901   -3072.6337   -2647.9346    1247.0078    12190.562 
    5650    285.14788    247.09581   -3069.8602   -2645.7243    1315.2059    12186.931 
    5700    295.68259    247.64171   -3088.0569   -2648.2514    846.31236    12183.839 
    5750    308.52646    248.12713   -3104.2376   -2645.3279    402.63951    12181.044 
    5800    292.78361    247.58988   -3086.3295    -2650.836    893.73854    12178.353 
    5850    296.89016    247.80926   -3093.6419   -2652.0403    769.44441    12175.948 
    5900    311.51054    248.35037   -3111.6792   -2648.3308    280.54158    12173.793 
    5950    306.07317    248.21663   -3107.2211   -2651.9604    403.24869    12171.671 
    6000    299.77106    247.99018   -3099.6727    -2653.786    654.41646    12169.598 
    6050     291.4992    247.72401   -3090.8004   -2657.2174    894.27044    12167.713 
    6100    293.31446    247.94377   -3098.1258   -2661.8428     767.5066    12166.137 
    6150    291.78206    247.87994   -3095.9981   -2661.9944    920.06265    12164.842 
    6200    277.93198    247.50299   -3083.4329   -2670.0302    1419.8164    12163.907 
    6250    289.84351    247.91598   -3097.1992   -2666.0789    1007.8905    12163.544 
    6300    292.31286    248.00254   -3100.0846   -2665.2914    751.26772    12163.588 
    6350    287.69694    247.87942   -3095.9806   -2668.0532    804.78935    12163.902 
    6400    295.54052    248.21638   -3107.2127   -2667.6186    532.36109    12164.491 
    6450    300.82262    248.37846   -3112.6153   -2665.1645    428.59753    12165.223 
    6500    298.88243    248.37505   -3112.5016   -2667.9366    506.72529    12166.043 
    6550    285.01726    247.80719   -3093.5731   -2669.6315    958.85236    12167.019 
    6600    286.58052    247.85255   -3095.0849   -2668.8181    896.70838    12168.339 
    6650    303.68729    248.61511   -3120.5035   -2668.7917     201.1528    12169.961 
    6700    285.17581    247.92738   -3097.5793   -2673.4019    738.03422    12171.614 
    6750    288.68535    248.06236   -3102.0788   -2672.6812    682.63648    12173.466 
    6800    296.15758    248.42414   -3114.1379   -2673.6259    360.42798    12175.547 
    6850    299.88458    248.44907    -3114.969   -2668.9134    165.78005    12177.678 
    6900    291.66729    248.15498   -3105.1659   -2671.3329    462.25673    12179.768 
    6950    281.47435    247.71211   -3090.4037   -2671.7319    802.87731    12181.967 
    7000    293.12131    248.09955   -3103.3183   -2667.3226     295.7038    12184.415 
    7050    294.86012    243.17817   -3105.9391    -2667.357    185.48699    12186.891 
    7100    287.31104    242.83772   -3094.5906   -2667.2372     446.1919     12189.32 
    7150     289.1744    242.98157   -3099.3856   -2669.2606     312.2342    12191.826 
    7200    309.53853    243.67893   -3122.6311    -2662.216   -285.20603    12194.307 
    7250    298.27696     243.3431   -3111.4368   -2667.7724    103.05088    12196.527 
    7300    285.18401    242.82821   -3094.2736    -2670.084    495.42285    12198.645 
    7350    299.53752    243.26457   -3108.8189   -2663.2796    89.712213     12200.82 
    7400     294.6037    243.05034   -3101.6781   -2663.4774    252.36454    12202.913 
    7450    305.12602    243.45444   -3115.1481   -2661.2963   -196.16636    12204.933 
    7500    303.31205    243.44429   -3114.8095   -2663.6558   -203.35026    12206.702 
    7550    288.95762    242.93438   -3097.8126     -2668.01    270.06241    12208.224 
    7600    295.60985    243.22276   -3107.4253   -2667.7281    65.632828    12209.677 
    7650    288.10951    242.85681   -3095.2271    -2666.686    249.17806    12211.032 
    7700      291.601    242.94587   -3098.1956   -2664.4612    99.259284    12212.337 
    7750    286.37211    242.84493    -3094.831   -2668.8742    258.34964    12213.551 
    7800    296.11962    243.14935   -3104.9784   -2664.5229   -52.820785     12214.71 
    7850    290.59667    242.88135    -3096.045   -2663.8045    102.42476    12215.717 
    7900    290.20347    242.80161    -3093.387   -2661.7314    124.40657    12216.608 
    7950    291.06849    242.80184   -3093.3945   -2660.4522    159.54935    12217.394 
    8000    291.71999    242.89578   -3096.5261   -2662.6148    83.888184    12218.091 
    8050    296.06075    243.01556   -3100.5187   -2660.1507   -61.338478    12218.651 
    8100    289.55465    242.77074   -3092.3578   -2661.6672    163.53359    12219.029 
    8150    290.62606    242.79852    -3093.284   -2660.9998    167.49354    12219.328 
    8200    299.67846    243.09342   -3103.1141   -2657.3651   -103.59313    12219.538 
    8250    291.09844    242.81029   -3093.6764   -2660.6896    133.92083    12219.554 
    8300    297.65564    243.05402   -3101.8007   -2659.0605    23.405386    12219.437 
    8350    283.62917    242.47118   -3082.3727   -2660.4958    593.52058    12219.216 
    8400     296.6872    242.97511   -3099.1704   -2657.8707    203.68087    12219.093 
    8450    297.19661    243.00497   -3100.1655   -2658.1081    156.87805    12218.948 
    8500    292.41961    242.69812   -3089.9374   -2654.9854    418.31639     12218.74 
    8550    293.48841    242.73978    -3091.326   -2654.7843    450.40161    12218.589 
    8600    294.85957    242.80315   -3093.4384   -2654.8572    352.26422    12218.507 
    8650    298.61823    242.97988   -3099.3294   -2655.1574    100.03766    12218.436 
    8700    307.63995    243.20095   -3106.6984   -2649.1073   -185.77013    12218.254 
    8750    298.76857    242.89453   -3096.4844   -2652.0888    102.77835    12217.836 
    8800    301.89838    242.90087   -3096.6957   -2647.6448    36.939254    12217.263 
    8850    298.72857    242.80239   -3093.4129   -2649.0768    126.00123    12216.536 
    8900    298.03569    242.77025   -3092.3416   -2649.0361    293.57502    12215.707 
    8950    305.91265    242.97257   -3099.0856   -2644.0637    163.66137    12214.857 
    9000    307.76979     243.0294   -3100.9798   -2643.1956    131.85553     12213.93 
    9050    303.58441    237.90461   -3096.8203   -2645.2615    325.58942    12212.906 
    9100     292.5867    237.46922   -3082.3073   -2647.1068    712.50654    12211.891 
    9150    298.63102    237.71475   -3090.4917   -2646.3007    499.26898    12211.044 
    9200    302.17411    237.83185   -3094.3951    -2644.934    434.94274    12210.291 
    9250    319.14155    238.34656    -3111.552   -2636.8532    -24.02565    12209.554 
    9300    314.62224    238.06757   -3102.2523   -2634.2756    95.658433    12208.647 
    9350    300.90566    237.60075   -3086.6916   -2639.1172    526.47944    12207.606 
    9400    312.46989    238.03328   -3101.1093    -2636.334    186.23694    12206.606 
    9450    301.48803    237.63023   -3087.6745   -2639.2339    519.04265    12205.566 
    9500    304.60449    237.73089   -3091.0297   -2637.9536     501.4398    12204.578 
    9550    296.42082    237.48786   -3082.9286   -2642.0251    750.29207    12203.693 
    9600    314.66658     238.0887   -3102.9566    -2634.914    203.69018    12202.969 
    9650    316.04831    238.09546   -3103.1819    -2633.084    146.52012     12202.19 
    9700     312.5792    237.96073   -3098.6909   -2633.7531    271.56133    12201.307 
    9750    311.29331    237.92952   -3097.6505   -2634.6253    352.51586    12200.362 
    9800    307.28594    237.85135   -3095.0449   -2637.9804    486.70668    12199.414 
    9850    295.61773    237.46413   -3082.1378   -2642.4289    917.06976    12198.552 
    9900    292.46462    237.37728   -3079.2427   -2644.2237    1072.7389    12197.992 
    9950    306.48392    237.75812   -3091.9375   -2636.0659    659.56967    12197.811 
   10000    314.95222    238.14172   -3104.7239   -2636.2563    311.43579    12197.794 
   10050    308.62085    237.85383   -3095.1277   -2636.0776    437.17468    12197.785 
   10100    308.99338    237.92361   -3097.4536   -2637.8494    355.97619    12197.805 
   10150    311.38839    238.01988   -3100.6625   -2637.4959    309.33773    12197.817 
   10200    303.23934    237.78029   -3092.6763   -2641.6307    571.51547    12197.824 
   10250    312.61265    238.11078   -3103.6926   -2638.7049    274.12509    12197.931 
   10300    315.84461    238.15207   -3105.0691   -2635.2742    194.39791    12198.011 
   10350    298.32402    237.47368   -3082.4561   -2638.7218    758.49297    12198.031 
   10400    304.15055    237.67364   -3089.1214   -2636.7205    488.77427    12198.217 
   10450    311.26269    237.96914   -3098.9712   -2635.9916    216.91034     12198.48 
   10500    304.35379    237.79883   -3093.2945   -2640.5913    492.98549    12198.714 
   10550    307.15314    237.94757   -3098.2524   -2641.3854    386.37008    12199.014 
   10600    288.91284    237.35502   -3078.5007   -2648.7648    788.41593    12199.376 
   10650    293.76796     237.5515   -3085.0499   -2648.0923    579.48085    12199.945 
   10700    302.11257    237.81173   -3093.7245   -2644.3549    370.70622     12200.65 
   10750    303.07498    237.88646   -3096.2155   -2645.4144     278.3192    12201.371 
   10800    317.09113    238.44911   -3114.9704   -2643.3213   -302.91993    12202.038 
   10850    307.26367    238.11707   -3103.9022   -2646.8708   -69.742383    12202.394 
   10900    293.53052    237.82535   -3094.1782   -2657.5738    356.28381    12202.511 
   10950    301.35969    238.13573   -3104.5243   -2656.2746    27.424208    12202.605 
   11000    309.45928    238.48917   -3116.3056   -2656.0084   -365.96806    12202.535 
   11050    298.62054    238.17864   -3105.9546   -2661.7792   -66.324542    12202.111 
   11100    294.59601    238.07349   -3102.4496   -2664.2603    156.17623     12201.45 
   11150    288.58085    238.00984   -3100.3278   -2671.0857     262.9987    12200.682 
   11200    280.51424    237.82521   -3094.1737   -2676.9301    438.44619    12199.869 
   11250     278.1215    237.86764   -3095.5879   -2681.9033    397.76112    12199.101 
   11300    290.14307    238.27691   -3109.2305   -2677.6647   -10.049046    12198.352 
   11350    290.58912    238.39504   -3113.1681   -2680.9388   -154.02283    12197.437 
   11400     293.8153    238.61695    -3120.565    -2683.537   -399.15379    12196.236 
   11450     280.4389    238.10841   -3103.6135   -2686.4819   -1.3877947    12194.672 
   11500    296.47352    238.65242   -3121.7472   -2680.7654   -497.20029    12192.864 
   11550    291.58639    238.55746   -3118.5818   -2684.8692   -347.71909    12190.637 
   11600    279.67144    238.30851   -3110.2838   -2694.2937    49.156658    12188.039 
   11650    282.34769    238.53812   -3117.9374   -2697.9666   -123.48435    12185.244 
   11700    282.89831    238.58454   -3119.4845   -2698.6947   -257.13904    12182.197 
   11750    287.70629    238.74551   -3124.8504   -2696.9091   -428.26282    12178.821 
   11800      285.734    238.63859   -3121.2863   -2696.2786   -265.74939    12175.034 
   11850    269.85841    238.11208   -3103.7358   -2702.3419    273.46971    12170.918 
   11900    287.70495    238.71685   -3123.8949   -2695.9556     -207.674    12166.689 
   11950    290.01817    238.73726   -3124.5754   -2693.1954   -157.65817    12162.187 
   12000    281.33445      238.471   -3115.6999   -2697.2362    203.08159    12157.405 
   12050    282.79016    238.44643   -3114.8809   -2694.2519    262.33151    12152.508 
   12100    287.69675    238.71539   -3123.8464   -2695.9192    111.67298    12147.533 
   12150    291.04826    238.87219    -3129.073   -2696.1608    15.816904     12142.42 
   12200    272.95698    238.17882   -3105.9608    -2699.958    667.03108     12137.16 
   12250    301.18329    239.22083   -3140.6944   -2692.7071   -210.04027    12131.964 
   12300    310.68795     239.6084   -3153.6135   -2691.4887   -475.41423     12126.49 
   12350    288.54664    238.70861   -3123.6204   -2694.4292    429.11905    12120.598 
   12400    281.50561    238.47836   -3115.9455   -2697.2272    762.03844    12114.686 
   12450    288.19138    238.72039   -3124.0129   -2695.3501    557.40218    12108.954 
   12500    294.72887    238.98766   -3132.9221   -2694.5353    407.80648    12103.322 
   12550    288.54156    238.76979   -3125.6596   -2696.4759    688.76638    12097.737 
   12600    308.91957    239.46833   -3148.9445     -2689.45    63.045548    12092.248 
   12650    299.60332    239.18272   -3139.4239   -2693.7866     322.7516    12086.628 
   12700    300.87685    239.22294   -3140.7646   -2693.2331    368.91296    12080.947 
   12750    287.35518     238.7645   -3125.4832   -2698.0641    873.89086    12075.282 
   12800    293.35262    238.90711   -3130.2371   -2693.8973    819.12531    12069.835 
   12850    297.65503     239.0041   -3133.4699   -2690.7306     748.7164    12064.636 
   12900    293.90558     238.9129     -3130.43   -2693.2677    874.37091    12059.643 
   12950    314.21889    239.62665   -3154.2218    -2686.845    369.55354    12054.845 
   13000    291.52994    238.85831   -3128.6103   -2694.9816    1244.2081    12050.122 
   13050    295.27418    238.88329    -3129.443    -2690.245    1264.4857    12045.805 
   13100     302.9345    239.13741   -3137.9137   -2687.3216    1088.1962    12041.954 
   13150    281.43153    238.37172   -3112.3905   -2693.7824    1845.2282    12038.527 
   13200    297.31572    238.88397   -3129.4657   -2687.2311    1448.4261    12035.813 
   13250     296.4257    238.90217   -3130.0724   -2689.1616    1421.7054    12033.709 
   13300     305.0093    239.22169    -3140.723   -2687.0448    1125.7315    12032.131 
   13350    292.58044    238.62103    -3120.701   -2685.5098    1604.1315     12031.02 
   13400    300.32663    238.91068    -3130.356   -2683.6429    1397.3615    12030.541 
   13450    317.21028    239.48936   -3149.6455   -2677.8192     842.1115    12030.596 
   13500    304.70991    239.05639    -3135.213   -2681.9801    1208.2204    12030.957 
   13550    298.71883    238.86109   -3128.7029   -2684.3813    1394.5131    12031.778 
   13600    305.44228     239.0307   -3134.3567   -2680.0344    1186.5836    12033.133 
   13650    307.47747    239.03463   -3134.4878   -2677.1383    1119.8891    12034.947 
   13700    303.68931    238.90722   -3130.2407   -2678.5258     1243.169    12037.193 
   13750    291.14691    238.41939   -3113.9795   -2680.9206    1602.7468    12039.952 
   13800    295.50833    238.57389   -3119.1297   -2679.5835    1473.0373    12043.373 
   13850     293.9518    238.46249   -3115.4165   -2678.1854    1506.9563    12047.445 
   13900    298.82091    238.72322   -3124.1074   -2679.6339    1255.4663    12052.163 
   13950    297.79803     238.7107   -3123.6901   -2680.7381    1254.5267    12057.426 
   14000    311.52746     239.1263   -3137.5433   -2674.1698    844.27775    12063.186 
   14050    287.90231    238.31521   -3110.5069    -2682.274    1471.7289     12069.34 
   14100    299.22286    238.58623    -3119.541   -2674.4697    1065.1774    12076.092 
   14150    313.82711    239.05307   -3135.1023   -2668.3082    565.87231    12083.286 
   14200    299.38369    238.50917   -3116.9723   -2671.6617    1004.0397    12090.716 
   14250    304.95455    238.72004   -3124.0012   -2670.4044     778.6931    12098.513 
   14300    303.87038    238.63855   -3121.2851    -2669.301    685.46236    12106.637 
   14350    314.45326    238.96569   -3132.1897   -2664.4643    258.67533    12114.994 
   14400    307.03673     238.6856   -3122.8535   -2666.1596    387.07419    12123.413 
   14450    309.43423    238.67603   -3122.5345   -2662.2745    314.94894     12131.91 
   14500    297.02347    238.21294   -3107.0979    -2665.298    654.63168    12140.487 
   14550    299.38624    238.22693   -3107.5644   -2662.2501    546.08907    12149.277 
   14600    292.62132    238.00199   -3100.0662   -2664.8142    744.96637    12158.279 
   14650    299.93829    238.27846   -3109.2821   -2663.1466    470.40841    12167.544 
   14700    301.68324    238.37284   -3112.4279   -2663.6969    321.18427    12176.967 
   14750    300.37838    238.26346   -3108.7821    -2661.992    337.94152    12186.462 
   14800    295.75666    238.01161   -3100.3871   -2660.4715    400.71892    12196.064 
   14850    304.45196     238.2587   -3108.6232    -2655.774    30.118469    12205.754 
   14900    297.21186    237.97488   -3099.1627   -2657.0826    181.84577    12215.387 
   14950    298.24394    237.93058    -3097.686   -2654.0708    77.652791    12225.005 
   15000    304.74557    238.05919   -3101.9731   -2648.6872   -257.42685    12234.538 
   15050     305.7758     233.0428   -3101.4268   -2646.6084   -331.30765    12243.827 
   15100    298.47246    232.74405   -3091.4685   -2647.5133   -63.965159    12252.828 
   15150    295.40002     232.5443     -3084.81   -2645.4249    35.263741    12261.649 
   15200    284.98812    232.14028   -3071.3427   -2647.4444    269.98755    12270.373 
   15250    289.51769    232.28525   -3076.1749   -2645.5393     80.10617    12279.097 
   15300    290.23368    232.18193   -3072.7309   -2641.0303    13.826928    12287.753 
   15350    294.19253    232.19928   -3073.3093   -2635.7202   -113.89213    12296.274 
   15400    304.06127    232.51927   -3083.9758   -2631.7077    -506.1551    12304.585 
   15450    303.80752     232.3728   -3079.0934   -2627.2028   -600.94391    12312.493 
   15500    306.97432    232.43685   -3081.2282   -2624.6272   -773.15764      12319.9 
   15550    314.60641     232.6056   -3086.8533   -2618.9001   -1001.4055    12326.716 
   15600    322.85206    232.80248   -3093.4161   -2613.1981   -1129.0948    12332.806 
   15650    300.35761    232.05562   -3068.5206   -2621.7614   -384.64442    12338.153 
   15700    306.21729    232.19215   -3073.0715   -2617.5965   -523.50486    12343.039 
   15750    298.88708    231.88934   -3062.9779   -2618.4061   -302.18226    12347.482 
   15800    304.32234    232.07822   -3069.2739   -2616.6175   -432.27183    12351.556 
   15850    302.25425      231.948   -3064.9333    -2615.353    -429.7845    12355.234 
   15900    305.30053    232.05262   -3068.4207   -2614.3093   -544.23146     12358.48 
   15950    311.56039      232.205   -3073.4999   -2610.0774   -674.95864    12361.231 
   16000    315.37622    232.22555   -3074.1851   -2605.0869   -781.27535      12363.4 
   16050    305.99783    231.89104   -3063.0347   -2607.8861   -495.49253    12364.949 
   16100    305.28065    231.79998   -3059.9993   -2605.9175   -336.90364    12366.006 
   16150    311.88924    232.06301   -3068.7671   -2604.8555    -465.8957     12366.66 
   16200    313.98729    232.23263   -3074.4209   -2607.3886   -477.94669     12366.84 
   16250    302.73968    231.79553   -3059.8508   -2609.5485   -142.52947    12366.564 
   16300    317.61104    232.31689   -3077.2298   -2604.8075   -714.20543    12365.947 
   16350    310.74618    232.07141   -3069.0472   -2606.8358   -497.94145    12364.762 
   16400    300.37172    231.75446   -3058.4821   -2611.7019   -175.19166    12363.092 
   16450     312.0135    232.10367   -3070.1222   -2606.0258    -562.3216    12361.044 
   16500    309.64225    231.94369   -3064.7896   -2604.2202   -494.78234    12358.477 
   16550     312.5804    231.96903   -3065.6344   -2600.6947   -477.12398    12355.388 
   16600    301.29783     231.6199   -3053.9965   -2605.8388   -63.676319    12351.817 
   16650    315.54219    232.21931   -3073.9769   -2604.6318   -487.47575    12347.893 
   16700    320.42979    232.37285    -3079.095     -2602.48   -581.90514    12343.473 
   16750    304.22218    231.85938   -3061.9793   -2609.4719   -126.81976    12338.515 
   16800    318.09273    232.40914   -3080.3046   -2607.1658   -513.74444    12333.162 
   16850    311.14234    232.23526   -3074.5085   -2611.7079   -244.91658    12327.301 
   16900    323.62512     232.6755   -3089.1832   -2607.8154    -522.8683    12320.993 
   16950    307.04366    232.09051   -3069.6836   -2612.9795    32.498735    12314.202 
   17000    306.67147    232.06502   -3068.8339   -2612.6833    147.88532    12307.111 
   17050     324.1295    232.62626   -3087.5419   -2605.4238   -327.75031    12299.798 
   17100    316.02345    232.39985   -3079.9951   -2609.9342   -70.867846    12292.054 
   17150    310.31347    232.20447   -3073.4822   -2611.9144    202.92909    12283.981 
   17200      311.099    232.34896   -3078.2988   -2615.5626    144.09463    12275.745 
   17250     321.4821    232.80565   -3093.5216   -2615.3413   -187.24423    12267.269 
   17300    307.19714    232.39387   -3079.7957   -2622.8632     249.9998    12258.464 
   17350    320.15985    232.88732    -3096.244   -2620.0305    13.585732    12249.459 
   17400    305.82648     232.4285     -3080.95   -2626.0563    579.88639    12240.239 
   17450    317.07727    232.78852   -3092.9508   -2621.3224    397.26878    12231.004 
   17500    307.43877    232.44609   -3081.5364   -2624.2445    663.98368    12221.745 
   17550    323.98829    233.03243   -3101.0812   -2619.1731    211.34077    12212.506 
   17600    325.36792    233.16893   -3105.6309   -2621.6708    297.26927    12203.125 
   17650      311.548    232.76054   -3092.0179   -2628.6138     756.3484    12193.637 
   17700    317.91885     233.0474   -3101.5798   -2628.6996    535.19041    12184.218 
   17750    311.35497    232.88314   -3096.1047   -2632.9877    705.98355    12174.847 
   17800    304.30604    232.64981   -3088.3269   -2635.6947    1028.0606    12165.584 
   17850    324.97833    233.43624   -3114.5414   -2631.1608    493.83916    12156.541 
   17900    315.55743     233.1902   -3106.3401   -2636.9723    893.17857    12147.566 
   17950    302.39148    232.81833   -3093.9443   -2644.1599    1320.3169    12138.808 
   18000    323.12086    233.58418   -3119.4726   -2638.8548    701.84029    12130.402 
   18050    308.64217    238.11874    -3103.958   -2644.8761    1202.2103    12122.178 
   18100    307.04763    238.26438   -3108.8128   -2652.1027     1265.768    12114.323 
   18150    301.26158    238.01169   -3100.3896   -2652.2858    1527.8758    12106.908 
   18200    308.03631    238.28268   -3109.4225   -2651.2418    1345.6285    12100.047 
   18250    312.45804    238.44873   -3114.9578   -2650.2001    1232.6117    12093.672 
   18300    324.07694    238.92947   -3130.9824   -2648.9425     918.8306    12087.696 
   18350    318.14542    238.77033   -3125.6778   -2652.4606    1163.0157    12082.014 
   18400    304.83332     238.2686   -3108.9534   -2655.5369    1709.5969    12076.716 
   18450    294.86193    237.97924    -3099.308   -2660.7232    2007.5261    12072.112 
   18500    308.37075    238.53263   -3117.7542   -2659.0761     1504.671    12068.316 
   18550    312.62496     238.6362   -3121.2067   -2656.2007    1295.5445     12065.13 
   18600     321.9096    238.92105   -3130.7018   -2651.8857    982.93398    12062.392 
   18650    311.92704    238.66741   -3122.2469   -2658.2791    1250.6064    12060.001 
   18700    314.21474    238.78699   -3126.2329   -2658.8623    1224.9316    12058.053 
   18750    300.29598    238.34577   -3111.5258   -2664.8583      1585.85    12056.588 
   18800      305.786    238.63144   -3121.0479   -2666.2144    1372.6326    12055.727 
   18850    308.40777    238.78265   -3126.0883   -2667.3551    1337.5274    12055.428 
   18900    306.85773    238.68792   -3122.9305   -2666.5029    1419.5292    12055.663 
   18950    302.52825    238.46161    -3115.387   -2665.3992    1471.9843    12056.459 
   19000     313.8442    238.92474   -3130.8245    -2664.005    941.28582    12057.841 
   19050    314.06171    239.02273    -3134.091    -2666.948     876.0454    12059.566 
   19100    306.97348    238.89709   -3129.9031   -2673.3033    1057.7082      12061.6 
   19150    314.77092    239.12716   -3137.5721   -2669.3742    741.11205    12064.013 
   19200    303.21023    238.75666   -3125.2219   -2674.2196    1012.3462    12066.687 
   19250    296.92109    238.54076   -3118.0252   -2676.3776    1193.8891    12069.724 
   19300    297.51422    238.50823   -3116.9408    -2674.411    1201.1371    12073.245 
   19350    298.51613    238.60768   -3120.2558   -2676.2357    1169.9204    12077.247 
   19400    293.97626    238.46955   -3115.6518   -2678.3844    1268.9198    12081.746 
   19450    297.39322    238.59577   -3119.8589    -2677.509    1033.6068    12086.785 
   19500    302.86189    238.85686   -3128.5621    -2678.078    638.50731    12092.237 
   19550    295.88076    238.62751   -3120.9171   -2680.8169      769.867    12097.933 
   19600    290.46876    238.36218   -3112.0726   -2680.0223    934.75146    12103.924 
   19650    298.64168    238.78588   -3126.1959    -2681.989    555.92325    12110.267 
   19700    293.03655    238.56136   -3118.7121   -2682.8425    618.06978    12116.813 
   19750    284.41027    238.24025   -3108.0083   -2684.9696    778.33385    12123.572 
   19800    297.74529    238.69933   -3123.3109   -2680.4373    289.45399    12130.594 
   19850    297.06779    238.72272   -3124.0907   -2682.2249    273.98435    12137.686 
   19900    287.73186    238.32812   -3110.9375   -2682.9581    534.40125    12144.821 
   19950     286.1432    238.30484   -3110.1615   -2684.5452    364.79448     12152.11 
   20000    303.03374    238.88287   -3129.4289   -2678.6892   -326.59954     12159.45 
   20050    298.13516    233.79247   -3126.4157   -2682.9622   -226.31344    12166.535 
   20100    290.65633    233.56557   -3118.8522    -2686.523     16.42404    12173.367 
   20150    289.52674    233.53038   -3117.6792   -2687.0302   -12.766292    12180.076 
   20200    286.19149    233.39307   -3113.1024   -2687.4142    24.832179    12186.668 
   20250    295.10657    233.67916   -3122.6386     -2683.69   -291.89575      12193.1 
   20300    279.02771    233.07247   -3102.4158   -2687.3832     63.18986    12199.289 
   20350    293.91641    233.54957   -3118.3189   -2681.1405   -401.72686    12205.333 
   20400    281.84684    233.17131   -3105.7102   -2686.4844   -107.07719    12211.074 
   20450    287.17219    233.39528    -3113.176   -2686.0292   -361.13067    12216.575 
   20500    294.48591    233.64132   -3121.3775    -2683.352   -662.50026    12221.736 
   20550    288.14459    233.35684   -3111.8945   -2683.3013   -408.21257    12226.419 
   20600    291.33097    233.45718   -3115.2395   -2681.9067   -525.76082    12230.703 
   20650     296.3572    233.54016   -3118.0055   -2677.1966   -770.79429    12234.536 
   20700    291.89733    233.30845   -3110.2817   -2676.1065   -742.34754    12237.803 
   20750    303.23725    233.75423    -3125.141   -2674.0985   -1159.2331    12240.461 
   20800    294.63053    233.51459    -3117.153   -2678.9124   -888.18475    12242.348 
   20850    290.21031    233.31419   -3110.4731   -2678.8072    -591.7039    12243.555 
   20900    282.46036     233.0243   -3100.8101   -2680.6717   -284.47444    12244.265 
   20950    285.57735     233.0766   -3102.5533   -2677.7786   -297.31399    12244.604 
   21000    282.36619     232.9462   -3098.2067   -2678.2084   -198.27414    12244.592 
   21050    288.13456    233.16274   -3105.4246   -2676.8463   -435.85375    12244.254 
   21100    293.27064    233.22804   -3107.6012   -2671.3834   -520.15266    12243.498 
   21150    282.90946    232.95049   -3098.3497   -2677.5433   -162.31974    12242.276 
   21200    292.02267    233.16813   -3105.6042   -2671.2427     -328.008    12240.727 
   21250    305.03446    233.61201   -3120.4002   -2666.6846   -721.35028    12238.789 
   21300    308.81009    233.63995   -3121.3315   -2661.9999   -792.79179     12236.24 
   21350    303.46808    233.28532   -3109.5107   -2658.1249   -524.81113    12233.045 
   21400    298.22331    233.12392   -3104.1307   -2660.5461   -219.90761    12229.322 
   21450    294.01697    233.04588   -3101.5294   -2664.2015    29.059271    12225.235 
   21500    301.59651    233.35545   -3111.8483   -2663.2464   -153.45083    12220.903 
   21550    294.63475    233.07336   -3102.4455   -2664.1986    156.38137    12216.279 
   21600    285.84368    232.63763   -3087.9208     -2662.75    598.51176    12211.505 
   21650    307.80954    233.27726   -3109.2421   -2651.3987    48.607979     12206.76 
   21700     306.5942    233.27909   -3109.3031   -2653.2675    127.96961    12201.839 
   21750    316.14185    233.56261   -3118.7536   -2648.5165   -27.770728    12196.699 
   21800    319.02102    233.55457   -3118.4858   -2643.9662    8.0754405    12191.302 
   21850    313.90793    233.32457    -3110.819   -2643.9047    253.52533    12185.648 
   21900    292.26926    232.54582   -3084.8607   -2650.1323    1031.3001    12179.899 
   21950    299.71973    232.77914    -3092.638   -2646.8276    928.10291    12174.403 
   22000    298.03134     232.7399   -3091.3301   -2648.0311    974.15261     12169.19 
   22050    310.84202     233.1374   -3104.5801   -2642.2261    625.74747    12164.224 
   22100    305.34448    232.87916    -3095.972   -2641.7952    927.52234     12159.39 
   22150    302.13087    232.76559   -3092.1864   -2642.7897    1147.6457    12154.803 
   22200    310.56635    232.95445   -3098.4818   -2636.5379    919.01099    12150.588 
   22250    331.17115    233.66417    -3122.139    -2629.547     323.3328    12146.601 
   22300    326.87657    233.52758   -3117.5862    -2631.382    550.43654    12142.564 
   22350    309.03479    232.97755   -3099.2515   -2639.5857    1192.1401    12138.598 
   22400    325.58321    233.44986   -3114.9955   -2630.7151    808.21683    12134.968 
   22450    312.79757    233.08222   -3102.7407   -2637.4781    1242.0825    12131.582 
   22500    301.51553    232.63501   -3087.8338   -2639.3523    1578.6056    12128.632 
   22550    319.70691    233.28937   -3109.6458    -2634.106    965.66937    12126.244 
   22600    311.33683    233.07762   -3102.5873   -2639.4974    1285.7111    12124.195 
   22650    317.37863    233.27694   -3109.2314   -2637.1547    1090.8103    12122.583 
   22700    322.89661    233.52467    -3117.489   -2637.2047    784.23122    12121.332 
   22750    318.28264    233.41232   -3113.7442   -2640.3229    912.50877      12120.3 
   22800    320.65446    233.54517   -3118.1723   -2641.2231    910.23257    12119.533 
   22850      318.649    233.52873   -3117.6245   -2643.6582    963.97674     12119.04 
   22900    308.57878    233.13542   -3104.5139   -2645.5263    1337.2146     12118.87 
   22950    316.13435    233.36646   -3112.2154   -2641.9895    1090.0069    12119.173 
   23000     317.4248     233.4056   -3113.5201   -2641.3748    937.79555    12119.862 
   23050    319.11577    228.53375   -3117.7917   -2643.1312    926.84011    12120.843 
   23100    312.85557    228.31799   -3110.5996   -2645.2506    1107.0932     12122.14 
   23150    326.89057      228.794   -3126.4666   -2640.2417    594.21541    12123.766 
   23200    313.01886    228.33445   -3111.1483   -2645.5564    907.67869    12125.555 
   23250    299.25808    227.81184   -3093.7281   -2648.6043    1274.8265    12127.643 
   23300     320.8239    228.64515    -3121.505   -2644.3037    505.18132    12130.129 
   23350    323.48003    228.75562   -3125.1874   -2644.0354    368.35996    12132.719 
   23400    299.57844    228.09837   -3103.2792   -2657.6789    997.15289    12135.348 
   23450    308.56335     228.3276   -3110.9201   -2651.9555    792.51176    12138.263 
   23500    307.37895    228.32143   -3110.7143   -2653.5114    752.83753    12141.436 
   23550    298.81929    228.00851   -3100.2836   -2655.8125    911.17831    12144.841 
   23600    312.31358    228.49384   -3116.4613   -2651.9185    423.85405    12148.512 
   23650    308.20559    228.47952   -3115.9841   -2657.5517     377.9479    12152.268 
   23700    313.37965    228.60706   -3120.2355    -2654.107    163.79842    12156.026 
   23750    311.64428    228.49222   -3116.4073     -2652.86    148.24031    12159.693 
   23800    304.58231    228.25941   -3108.6472    -2655.604    305.11009    12163.264 
   23850    299.10206    228.15039   -3105.0131   -2660.1215    451.61818    12166.815 
   23900    298.51849    228.18209   -3106.0698   -2662.0461    472.08529    12170.431 
   23950    315.00428    228.77688   -3125.8961   -2657.3511   -116.04905    12174.097 
   24000    313.63531    228.73056   -3124.3519   -2657.8432   -136.41879    12177.536 
   24050    297.04777    233.19539    -3106.513    -2664.677    281.98252    12180.745 
   24100    304.50686    233.45415   -3115.1383   -2662.2074    42.881732    12183.895 
   24150    295.21899    233.13042   -3104.3474   -2665.2315    265.49059    12186.959 
   24200    305.38824    233.54376   -3118.1253   -2663.8834   -160.42823    12189.953 
   24250    298.61761    233.30203   -3110.0676   -2665.8965    55.406706    12192.716 
   24300     290.5311    232.92278   -3097.4259   -2665.2829    362.98938    12195.337 
   24350    290.40323     232.9952   -3099.8398    -2667.887    285.86714    12197.956 
   24400    288.90063    232.89146   -3096.3819   -2666.6641    239.47284    12200.566 
   24450    298.08308    233.20316    -3106.772    -2663.396     -74.1781    12203.113 
   24500    287.36716    232.84737   -3094.9125   -2667.4756    152.95025    12205.495 
   24550    298.79503    233.30098   -3110.0328   -2665.5978    -291.7108    12207.726 
   24600    299.03358    233.21605   -3107.2017   -2662.4119   -258.37283    12209.656 
   24650    301.69355    233.40429   -3113.4762   -2664.7299   -281.43169    12211.258 
   24700     300.0231    233.25708   -3108.5693   -2662.3076    -232.3575    12212.513 
   24750     298.7123    233.28018   -3109.3393   -2665.0274   -285.40091    12213.445 
   24800    300.39684    233.41512   -3113.8372   -2667.0197   -369.68037    12214.018 
   24850    291.53299    233.12449   -3104.1497   -2670.5165     -70.5816    12214.215 
   24900    302.59452    233.50885   -3116.9617   -2666.8753   -352.45128    12214.138 
   24950    287.59985    233.00858   -3100.2859    -2672.503    94.927818     12213.72 
   25000    286.05639    232.94138    -3098.046   -2672.5588     156.5685    12213.131 
   25050    288.30302    233.00346   -3100.1154   -2671.2865     71.14204    12212.415 
   25100    287.56644    232.92471   -3097.4903    -2669.757    129.57973    12211.543 
   25150    301.35559    233.32016   -3110.6721   -2662.4285   -235.38416    12210.514 
   25200     310.8434    233.72893   -3124.2976   -2661.9416   -488.84039    12209.155 
   25250    298.96862     233.2356   -3107.8534   -2663.1602   -127.23944    12207.353 
   25300    300.47151    233.34136   -3111.3788   -2664.4502    -287.7275    12205.222 
   25350    299.89064    233.27633    -3109.211   -2663.1464   -271.21084    12202.729 
   25400    290.47059    232.97143   -3099.0478   -2666.9948    80.861599    12199.876 
   25450    296.49279    233.21223   -3107.0744   -2666.0639   -75.541552    12196.827 
   25500    305.01201    233.46464   -3115.4881   -2661.8059   -258.79298     12193.52 
   25550    288.15764    233.01043   -3100.3476    -2671.735    322.78508    12189.872 
   25600    287.73933    233.02134   -3100.7112   -2672.7208    341.72869     12186.15 
   25650    295.97556    233.30289   -3110.0962    -2669.855    106.19492    12182.381 
   25700    299.54986    233.35497   -3111.8322   -2666.2745    74.999535    12178.445 
   25750     309.9586    233.75894   -3125.2981   -2664.2582   -204.80116     12174.29 
   25800    311.03841    233.77339   -3125.7795   -2663.1335   -136.80534    12169.795 
   25850    296.34279    233.18137   -3106.0458   -2665.2583    449.11131    12165.022 
   25900    297.25074    233.26038   -3108.6794   -2666.5414    404.45815    12160.212 
   25950    308.56007    233.79896    -3126.632   -2667.6723    16.984158    12155.364 
   26000     299.2209    233.41203   -3113.7343   -2668.6659    442.99126    12150.335 
   26050    299.12701    233.35689   -3111.8964   -2666.9676    621.44707    12145.291 
   26100    300.93137    233.37463   -3112.4877   -2664.8751    576.82993    12140.344 
   26150    311.68171    233.81817   -3127.2723   -2663.6694    287.70339    12135.442 
   26200    303.54957    233.46804   -3115.6012   -2664.0942    617.67879    12130.502 
   26250    315.29792    233.94767   -3131.5889   -2662.6071    309.30513    12125.608 
   26300    308.18754    233.70225   -3123.4082   -2665.0026    636.18877    12120.691 
   26350    298.99986    233.37746   -3112.5819   -2667.8422    988.57185    12115.889 
   26400     305.6492    233.58279   -3119.4262   -2664.7962    858.32584    12111.352 
   26450    291.54904    233.14609   -3104.8696   -2671.2125    1273.4788      12107.1 
   26500    316.72803    234.01016   -3133.6719   -2662.5629    599.28827    12103.223 
   26550    292.82741    233.17037    -3105.679   -2670.1204    1384.2511    12099.531 
   26600    296.50072    233.28696   -3109.5655   -2668.5431    1291.6414    12096.307 
   26650    316.83797     233.9825     -3132.75   -2661.4776    679.09886     12093.53 
   26700    295.21476    233.18581   -3106.1937   -2667.0841    1380.5787    12090.975 
   26750     294.4568     233.1726   -3105.7532    -2667.771    1466.0658    12088.893 
   26800    310.10529    233.69657   -3123.2189   -2661.9608    981.20794     12087.36 
   26850    321.66151    234.04866   -3134.9553   -2656.5081    667.88793    12086.141 
   26900     309.4618    233.60894    -3120.298    -2659.997    1134.9892    12085.108 
   26950    305.84951     233.5487   -3118.2899   -2663.3619    1222.6252    12084.457 
   27000    317.33445     233.8371   -3127.9032   -2655.8923    813.51094    12084.232 
   27050    322.27148    229.07515   -3135.8385   -2656.4841     606.1171    12084.229 
   27100    315.39085    228.85583   -3128.5278   -2659.4078    800.60558     12084.34 
   27150    314.12438    228.83922   -3127.9739   -2660.7377    874.76065    12084.653 
   27200    300.83361    228.38496   -3112.8321   -2665.3649    1239.4324    12085.247 
   27250    308.34354    228.68314   -3122.7715   -2664.1338    995.54307    12086.247 
   27300    306.74312    228.63853   -3121.2844   -2665.0273    991.83956    12087.591 
   27350    304.25753    228.60537    -3120.179   -2667.6189    1006.0746    12089.264 
   27400    311.15674    228.89027   -3129.6755   -2666.8534    799.11184    12091.247 
   27450    306.13822     228.6856   -3122.8535   -2667.4961    866.91359    12093.483 
   27500    312.28641    229.00214   -3133.4046   -2668.9022    524.28228    12095.944 
   27550    301.89899    228.63226   -3121.0754   -2672.0235    782.35077    12098.531 
   27600    308.42327     228.8679   -3128.9301   -2670.1739    644.84437    12101.313 
   27650     306.7243    228.81042    -3127.014   -2670.7849     657.5732    12104.257 
   27700     317.3692    229.16488   -3138.8294   -2666.7668    140.88216    12107.325 
   27750    310.07346    228.93945   -3131.3151   -2670.1043    221.01529      12110.3 
   27800    300.11546    228.73629   -3124.5429   -2678.1439    572.60342    12113.191 
   27850    283.93325    228.17888   -3105.9628   -2683.6336    1084.3272    12116.207 
   27900    299.10614    228.69748   -3123.2494   -2678.3517    511.11415     12119.56 
   27950    313.06633    229.26009    -3142.003   -2676.3405   -86.481519    12123.006 
   28000    302.67169    228.98738   -3132.9127   -2682.7115    112.62565    12126.254 
   28050    293.69396    228.67498   -3122.4992   -2685.6517    315.42685    12129.372 
   28100    300.54304    228.97164   -3132.3882   -2685.3532    18.710897    12132.441 
   28150     290.6088    228.71156   -3123.7186     -2691.46    176.18692    12135.361 
   28200    295.31433    228.95526    -3131.842   -2692.5843   -56.410399    12138.167 
   28250    295.78992    228.95533   -3131.8445   -2691.8794   -55.941148    12140.763 
   28300    297.81672    229.05786   -3135.2621   -2692.2823   -134.77553    12143.136 
   28350    301.58536     229.1719   -3139.0633   -2690.4779   -383.78075    12145.236 
   28400    287.27741    228.69254   -3123.0846   -2695.7813   -30.746688    12146.957 
   28450    282.40237    228.52708   -3117.5695   -2697.5174    143.12277    12148.451 
   28500    279.64541    228.48466   -3116.1555   -2700.2041    148.45805    12149.831 
   28550    300.52318    229.23624    -3141.208   -2694.2025   -605.18901    12151.053 
   28600    297.83827     229.1031   -3136.7699    -2693.758   -536.78355    12151.787 
   28650    292.50907    228.90983   -3130.3277   -2695.2426   -302.76703    12152.026 
   28700     291.2469    229.01147   -3133.7157    -2700.508   -320.49323     12151.89 
   28750    282.32158    228.69997   -3123.3323   -2703.4004   -108.44192     12151.39 
   28800    289.60206    229.00029    -3133.343   -2702.5819   -337.10502    12150.601 
   28850    293.03557    229.16011   -3138.6702    -2702.802   -411.34863    12149.435 
   28900    288.80836    229.04217   -3134.7389   -2705.1583   -212.96583    12147.835 
   28950    286.20729    228.96534    -3132.178   -2706.4663   -112.70782    12145.896 
   29000    289.00422    229.09394   -3136.4645   -2706.5927   -260.96108    12143.676 
   29050    290.90662    224.11821   -3137.2736   -2704.5721   -244.01734    12141.087 
   29100    287.48404    223.95505    -3131.835   -2704.2242   -66.220746    12138.143 
   29150    299.72074    224.28499   -3142.8329    -2697.021   -377.82721    12134.894 
   29200    304.42335    224.47889   -3149.2963   -2696.4897   -511.80911    12131.204 
   29250    293.60786    224.18287    -3139.429   -2702.7096   -217.99116    12127.012 
   29300    292.12312    224.18117   -3139.3723   -2704.8613   -216.46017    12122.438 
   29350    304.75259    224.57133   -3152.3777   -2699.0813   -564.54981     12117.48 
   29400     295.1129    224.25425   -3141.8083   -2702.8502   -151.91754    12112.006 
   29450    278.51489    223.73127   -3124.3758    -2710.106     418.4245    12106.201 
   29500    300.32269    224.43839   -3147.9465   -2701.2393   -193.48779      12100.3 
   29550    306.44457    224.71066    -3157.022   -2701.2089    -369.2881     12094.08 
   29600    287.28458    224.07169   -3135.7229   -2708.4089    267.57354    12087.451 
   29650     299.7036    224.49244    -3149.748   -2703.9616    13.687845     12080.65 
   29700    299.60129     224.5977   -3153.2566   -2707.6224    3.1026711     12073.64 
   29750    303.32779    224.65015   -3155.0051    -2703.828     34.19465    12066.363 
   29800    289.95639    224.18562   -3139.5205   -2708.2324    583.09845    12058.884 
   29850    292.20132    224.27174   -3142.3912   -2707.7639    663.87351    12051.437 
   29900    300.06309    224.50063   -3150.0209   -2703.6998      520.037    12044.079 
   29950    313.16279    225.01994   -3167.3313   -2701.5254      130.024    12036.728 
   30000    308.09739    224.85884   -3161.9612   -2703.6897     402.1078    12029.226 
   30050    293.15297    224.32833   -3144.2776   -2708.2348    995.78086    12021.695 
   30100    285.72574    224.00721   -3133.5736   -2708.5782    1327.3953    12014.432 
   30150    307.12869    224.71342   -3157.1139   -2700.2832     788.4109    12007.577 
   30200    304.58401    224.57393   -3152.4644   -2699.4188    918.44556    12000.927 
   30250    300.98804    224.55332   -3151.7773   -2704.0804    1115.9396    11994.499 
   30300    300.71772    224.51703   -3150.5675   -2703.2727    1187.3598    11988.412 
   30350    312.90862     224.8543   -3161.8098    -2696.382    855.16705    11982.682 
   30400    301.02923     224.5266   -3150.8866   -2703.1285    1215.4517    11977.196 
   30450    313.45589    224.96421   -3165.4738   -2699.2319    955.21542    11972.066 
   30500    309.29033    224.81742   -3160.5805   -2700.5346    1169.4726    11967.231 
   30550    299.10372    224.49019    -3149.673   -2704.7789    1559.2097     11962.76 
   30600    309.77643    224.83655   -3161.2184   -2700.4494    1308.8746     11958.83 
   30650    307.23452    224.75093   -3158.3643   -2701.3762     1481.687    11955.383 
   30700    293.05152    224.21843   -3140.6145   -2704.7225     1943.275    11952.487 
   30750    303.42185    224.63972   -3154.6573   -2703.3403    1617.0298    11950.327 
   30800    310.27427    224.97703    -3165.901   -2704.3915    1396.0109     11948.78 
   30850     308.1296    224.92087   -3164.0288   -2705.7094    1475.2776    11947.747 
   30900    297.61836    224.46833   -3148.9442   -2706.2594    1774.0233    11947.286 
   30950    317.80517    225.17763   -3172.5876   -2699.8765    1056.6814    11947.463 
   31000    314.38543     225.1522     -3171.74   -2704.1155    1114.1238    11948.009 
   31050     308.1036     219.9286   -3164.2866   -2706.0058      1382.21    11948.883 
   31100    301.97271    219.68505   -3156.1682   -2707.0067    1584.4264    11950.247 
   31150    309.49688    220.04812   -3168.2707   -2707.9175    1277.7035    11952.184 
   31200    304.68507    219.82908   -3160.9694   -2707.7734    1390.7678    11954.588 
   31250    313.20598    220.10063    -3170.021   -2704.1509    1149.8069    11957.453 
   31300    301.60622    219.68975   -3156.3251   -2707.7087    1401.1025    11960.724 
   31350    301.08857    219.67107   -3155.7022   -2707.8558    1346.9237    11964.493 
   31400    304.56442     219.8439   -3161.4634   -2708.4469    1097.1426    11968.744 
   31450    313.96404    220.22615   -3174.2048   -2707.2071    710.24266    11973.318 
   31500    308.26928    220.04241   -3168.0805   -2709.5533    789.16864    11978.073 
   31550    307.51025    220.07481   -3169.1604   -2711.7622    738.81274    11983.022 
   31600     297.4441    219.76525   -3158.8417   -2716.4162    968.36265    11988.157 
   31650     295.4831    219.77275   -3159.0916   -2719.5829    827.48196    11993.558 
   31700    298.54861    219.88536   -3162.8452   -2718.7768     648.3112    11999.178 
   31750    289.41222    219.67794   -3155.9313   -2725.4526    787.94973    12004.948 
   31800    293.77105    219.82355   -3160.7851   -2723.8229    510.97423    12010.893 
   31850    299.37164    220.00112   -3166.7041   -2721.4114      200.319      12016.9 
   31900    300.82107    220.08243   -3169.4144   -2721.9659    128.78221    12022.823 
   31950    289.86066    219.81221   -3160.4069   -2729.2611    313.88856    12028.621 
   32000    301.19417     220.1988   -3173.2933   -2725.2898   -238.35525    12034.317 
   32050     298.4249    215.16753    -3172.251   -2728.3666   -326.77733    12039.698 
   32100    274.81001    214.36968   -3145.6559   -2736.8968    279.43973    12044.721 
   32150    294.20411    215.01647   -3167.2158   -2729.6095   -315.51246    12049.598 
   32200    296.44708    215.12228   -3170.7427   -2729.8001   -408.72405     12054.12 
   32250    291.16627    214.95117   -3165.0389   -2731.9511   -198.15977    12058.182 
   32300    268.02096    214.21892   -3140.6307   -2741.9698    402.99923    12061.933 
   32350    281.45589     214.7317   -3157.7234   -2739.0791   -65.650918     12065.63 
   32400     292.2865    215.08041   -3169.3471   -2734.5931   -490.64908     12069.08 
   32450    285.64074    214.86044   -3162.0148   -2737.1458   -403.11199    12072.071 
   32500    301.64395    215.34362   -3178.1205    -2729.448   -885.43884    12074.585 
   32550    305.52211    215.47506   -3182.5021   -2728.0612   -965.71771    12076.394 
   32600    293.83384    215.13989   -3171.3298   -2734.2742   -640.61712    12077.463 
   32650    287.30255    214.97311   -3165.7703   -2738.4295   -485.23336    12077.937 
   32700    274.40301    214.60831   -3153.6103   -2745.4566   -195.27401    12077.927 
   32750    286.30221    215.03275   -3167.7584   -2741.9056   -550.68917    12077.535 
   32800    283.74573    214.93391   -3164.4636   -2742.4134    -528.1836    12076.631 
   32850     283.5257     214.9392     -3164.64    -2742.917   -497.90585    12075.192 
   32900      287.411    214.99074   -3166.3581    -2738.856   -483.78443    12073.233 
   32950    280.95062    214.86336   -3162.1121   -2744.2193    -251.4126    12070.785 
   33000    277.89743     214.7116   -3157.0532   -2743.7018   -101.95045     12067.96 
   33050    292.26851    210.18644   -3172.8813   -2738.1541   -514.85587    12064.796 
   33100    290.28524    210.10181   -3170.0602   -2738.2829   -433.21896     12061.12 
   33150    295.32683    210.23173   -3174.3911   -2735.1148    -433.9885    12056.927 
   33200    289.38521    210.11195   -3170.3983   -2739.9597   -244.26845    12052.236 
   33250    294.14894    210.22666   -3174.2221   -2736.6978    -329.5829    12047.125 
   33300    294.56731    210.22822    -3174.274   -2736.1274   -241.72947    12041.576 
   33350    290.88415    210.17515   -3172.5049   -2739.8368   -108.91841    12035.614 
   33400    304.98691    210.59058   -3186.3528   -2732.7079   -422.16803    12029.288 
   33450    300.90761    210.41713   -3180.5711   -2732.9938   -161.68115    12022.491 
   33500    303.43581    210.48568   -3182.8559   -2731.5182   -56.006389    12015.304 
   33550    294.37761     210.1707   -3172.3568   -2734.4924    287.34729    12007.835 
   33600    299.36099    210.35719   -3178.5729   -2733.2961    244.20473    12000.209 
   33650    293.65015    210.14065   -3171.3552   -2734.5728    439.91688    11992.453 
   33700    303.35009    210.36928    -3178.976   -2727.7658    276.78154    11984.629 
   33750    299.62807    210.27615   -3175.8716   -2730.1975    493.74633    11976.697 
   33800    307.10577    210.50862   -3183.6207   -2726.8241    390.51992    11968.734 
   33850    313.29265     210.6774   -3189.2467   -2723.2476    327.34968    11960.693 
   33900    298.45327    210.21561   -3173.8538   -2729.9272    914.60123    11952.576 
   33950    298.31533    210.17684   -3172.5613   -2728.8398    1138.6408    11944.637 
   34000    307.82108     210.5052   -3183.5066   -2725.6461    1025.3816    11937.011 
   34050    296.73829    215.18364   -3172.7879   -2731.4122    1393.8059    11929.691 
   34100    311.07594    215.64819    -3188.273   -2725.5711    1005.2321     11922.78 
   34150    303.02515    215.31663   -3177.2211   -2726.4941    1260.4709     11916.17 
   34200    302.00472    215.33616   -3177.8718   -2728.6627     1313.595    11909.941 
   34250    312.59215    215.62423   -3187.4743   -2722.5172    1042.1071    11904.124 
   34300    311.27425    215.53885   -3184.6282   -2721.6314    1230.5694    11898.601 
   34350    312.01453    215.59482   -3186.4939    -2722.396    1442.4019    11893.442 
   34400    306.86021    215.41452   -3180.4839   -2724.0526    1714.7841    11888.776 
   34450    317.41874    215.70658   -3190.2194   -2718.0831    1447.5611    11884.712 
   34500    320.52975     215.7452   -3191.5066   -2714.7429    1323.0496    11881.153 
   34550    315.87835    215.59632    -3186.544   -2716.6989    1511.9283    11878.007 
   34600    295.92901    214.97138   -3165.7126   -2725.5406    2208.8019    11875.408 
   34650    305.41192     215.2126   -3173.7533   -2719.4762    2054.9517     11873.66 
   34700    313.50173    215.36914   -3178.9714   -2712.6613    1873.1203    11872.711 
   34750    321.11718    215.63797   -3187.9323   -2710.2948     1627.538    11872.457 
   34800    316.17073     215.5329     -3184.43   -2714.1501    1785.7827    11872.791 
   34850    305.07932    215.17884   -3172.6279   -2718.8455    2124.8787    11873.794 
   34900    312.09708    215.29419   -3176.4729   -2712.2521    1970.6971    11875.625 
   34950      312.442    215.34639    -3178.213   -2713.4792    1905.6182    11878.231 
   35000    314.83291    215.31503   -3177.1676   -2708.8775    1810.5372    11881.571 
   35050     321.4833     215.4802   -3182.6734   -2704.4914    1614.8206    11885.578 
   35100    318.59089    215.40912    -3180.304   -2706.4242    1771.0126    11890.171 
   35150    312.82408    215.22943   -3174.3143   -2709.0122    1871.1623    11895.442 
   35200     328.3178    215.67619   -3189.2063   -2700.8585    1336.9591    11901.403 
   35250    313.91619    215.23528   -3174.5093   -2707.5828    1699.7318    11907.843 
   35300    312.09031    215.16952   -3172.3175   -2708.1068    1649.6105    11914.902 
   35350    306.73945    215.05489   -3168.4962   -2712.2445    1653.6966    11922.595 
   35400    301.07656    214.80578   -3160.1926   -2712.3641    1693.2541    11930.913 
   35450    318.09183    215.27745   -3175.9151   -2702.7776    1092.0059    11939.842 
   35500    320.90683    215.41353   -3180.4511   -2703.1265     886.4067    11949.122 
   35550    319.59218    215.31809   -3177.2696   -2701.9004    935.73683     11958.64 
   35600    313.24648    215.06509   -3168.8364    -2702.906    1070.6601    11968.406 
   35650    315.95506    215.16422   -3172.1405   -2702.1813    823.51878     11978.47 
   35700      302.939    214.78966   -3159.6553   -2709.0565      958.655    11988.752 
   35750    311.30997    215.00643    -3166.881    -2703.831    612.16458    11999.252 
   35800    308.87703     214.8906   -3163.0201   -2703.5889    523.93279    12009.869 
   35850    303.20767     214.8312   -3161.0401   -2710.0417    515.26427    12020.509 
   35900    290.78615    214.49924   -3149.9748   -2717.4524    644.91802    12031.212 
   35950    298.73101     214.6933   -3156.4435   -2712.1037      255.249    12042.013 
   36000    303.55157    214.74443   -3158.1476   -2706.6376    115.37791    12052.707 
   36050    295.83967    214.52311   -3150.7703   -2710.7313    277.37381    12063.245 
   36100    290.01269    214.36971   -3145.6571   -2714.2852    231.89111    12073.692 
   36150    302.54619    214.74208   -3158.0695   -2708.0549   -230.64713    12083.983 
   36200    280.58253    214.08962   -3136.3207   -2718.9754    295.53574    12093.966 
   36250    287.12164    214.30907   -3143.6356   -2716.5639   -83.196403    12103.824 
   36300    304.58859    214.86658   -3162.2193   -2709.1668   -758.48964    12113.389 
   36350    299.17434    214.65846   -3155.2821   -2710.2829   -648.65923    12122.334 
   36400    302.67186    214.72438   -3157.4794   -2707.2779   -828.22643    12130.645 
   36450    289.89068    214.41741    -3147.247   -2716.0566   -556.66042    12138.281 
   36500    274.99876    214.05936   -3135.3119   -2726.2721   -225.13053    12145.371 
   36550    289.05922    214.49092   -3149.6973   -2719.7436   -732.83666    12152.056 
   36600    287.18738    214.39297   -3146.4324   -2719.2629   -829.89693    12158.129 
   36650    291.47931     214.4312   -3147.7066   -2714.1532   -982.29868    12163.486 
   36700    294.77371    214.58321   -3152.7738   -2714.3203   -1126.7742    12168.062 
   36750    297.52501    214.69415   -3156.4717   -2713.9257   -1234.0311    12171.773 
   36800    281.40239    214.09304   -3136.4347     -2717.87   -839.57678    12174.582 
   36850     280.8209    214.02901   -3134.3003   -2716.6005   -859.26679    12176.663 
   36900    289.84127    214.48188   -3149.3961   -2718.2792   -1116.4975    12178.018 
   36950    274.03649    213.98424    -3132.808   -2725.1995   -627.87378    12178.565 
   37000    283.63584    214.26965   -3142.3216   -2720.4347   -921.27972    12178.473 
   37050    277.55346    219.07993   -3135.9977    -2723.158   -795.95378    12177.667 
   37100    279.76756    219.25648   -3141.8828   -2725.7498   -839.86233    12176.195 
   37150    287.88273    219.42885   -3147.6284   -2719.4247   -980.16061    12174.052 
   37200    293.36852    219.58471   -3152.8238   -2716.4603   -1038.2133    12171.132 
   37250    282.92125    219.24664   -3141.5547   -2720.7308   -810.67281    12167.434 
   37300    296.70996     219.7134   -3157.1132   -2715.7796   -1200.5659    12163.014 
   37350    283.05883    219.16462   -3138.8208   -2717.7922   -698.98701    12157.763 
   37400    293.85411    219.50558   -3150.1861   -2713.1004   -896.51096    12151.856 
   37450    286.36676    219.29501   -3143.1671   -2717.2183   -582.02266    12145.274 
   37500    282.36681    219.14817   -3138.2724   -2718.2731    -403.6573    12138.144 
   37550    296.07607    219.61931   -3153.9769   -2713.5862   -671.33588    12130.527 
   37600     282.3926    219.18228   -3139.4092   -2719.3716   -83.617841    12122.387 
   37650    290.90975    219.37887   -3145.9623   -2713.2561   -153.55497    12113.948 
   37700    283.69135    219.13035   -3137.6785   -2715.7091    197.93259    12105.225 
   37750    294.22011    219.32314   -3144.1048   -2706.4747    47.457161    12096.351 
   37800    295.93154    219.34845   -3144.9482   -2704.7725    110.12831    12087.297 
   37850    307.73201    219.77695   -3159.2318   -2701.5037   -91.200432    12078.054 
   37900     314.4119    220.04257   -3168.0858   -2700.4219   -123.13838    12068.542 
   37950    301.58452    219.56556   -3152.1854   -2703.6013    540.16824    12058.763 
   38000    294.07029    219.30989   -3143.6631   -2706.2558    952.40712    12049.044 
   38050    312.83217    214.91042   -3163.6806   -2698.3665     540.6206    12039.562 
   38100    307.11677    214.55751    -3151.917   -2695.1041    923.86377    12030.174 
   38150    302.68088    214.40069   -3146.6898   -2696.4749    1231.1444    12021.016 
   38200    314.43454     214.7737   -3159.1233   -2691.4258    972.05079    12012.226 
   38250    320.53212    214.90227   -3163.4091   -2686.6419    816.27886    12003.714 
   38300    328.79488    215.12416   -3170.8053   -2681.7478    683.26327    11995.377 
   38350    317.19625    214.82997   -3160.9989   -2689.1935    1129.2313    11987.185 
   38400    308.87081    214.63582   -3154.5273   -2695.1053    1466.3913    11979.328 
   38450    313.04419    214.75576   -3158.5254   -2692.8958    1390.4669     11971.99 
   38500    332.50483    215.30552   -3176.8506   -2682.2748    921.33256    11965.108 
   38550    325.20525    215.00465   -3166.8218   -2683.1036    1252.9826    11958.486 
   38600    314.99055    214.65414    -3155.138   -2686.6134    1687.7095     11952.27 
   38650    311.07068    214.56991   -3152.3303   -2689.6362     1822.072    11946.675 
   38700    318.10036    214.90146   -3163.3821   -2690.2319    1541.2425    11941.755 
   38750    321.97963    215.00227   -3166.7423   -2687.8221    1409.8294    11937.383 
   38800    332.77336    215.36467   -3178.8224   -2683.8473    1181.1309    11933.469 
   38850    314.88975    214.75505   -3158.5016    -2690.127    1691.2376    11929.953 
   38900     323.3259    215.00499   -3166.8329   -2685.9101    1470.1433     11927.03 
   38950    335.82217    215.39939   -3179.9798   -2680.4698    1192.1496    11924.603 
   39000    321.19715    214.97791   -3165.9302   -2688.1738     1638.446    11922.559 
   39050    325.53976    210.07293   -3169.0978    -2684.882    1513.3407     11921.06 
   39100    307.11866    209.56633    -3152.211   -2695.3953    2026.4781    11920.121 
   39150       312.95    209.76272   -3158.7575   -2693.2681    1901.0215    11919.932 
   39200    328.53728    210.25592   -3175.1973    -2686.523    1340.1156    11920.439 
   39250    330.44731    210.39118   -3179.7058   -2688.1905    1139.1506    11921.364 
   39300    325.96639    210.30644   -3176.8813    -2692.031    1277.7458     11922.61 
   39350    313.44976    209.93821   -3164.6071   -2698.3744    1676.6071    11924.264 
   39400    308.88068    209.86266   -3162.0886    -2702.652    1805.2783    11926.482 
   39450    311.36583    210.03119   -3167.7064   -2704.5733    1595.7879    11929.355 
   39500     315.3133    210.10415   -3170.1383   -2701.1337    1352.5627     11932.79 
   39550    308.40003    209.87378   -3162.4593   -2703.7377    1455.4323    11936.674 
   39600    313.26747    210.10474    -3170.158   -2704.1964    1108.5049    11941.016 
   39650    316.65556     210.3883   -3179.6101    -2708.609    887.14534    11945.655 
   39700    298.02262    209.84364   -3161.4548   -2718.1688    1378.1592    11950.522 
   39750    298.25694    209.92003   -3164.0009   -2720.3663    1238.8056    11955.808 
   39800    307.20057     210.2342   -3174.4732   -2717.5356    842.72075    11961.452 
   39850    313.67379    210.35085   -3178.3616   -2711.7956    645.22478    11967.275 
   39900      300.531        209.9   -3163.3332   -2716.3161    1021.4035    11973.197 
   39950     317.9881    210.54943   -3184.9811   -2711.9979    392.35695    11979.306 
   40000    306.33451    210.18811   -3172.9371   -2717.2877    571.27764    11985.394 
   40050    300.18158    214.94191   -3164.7302   -2718.2329    655.73799    11991.495 
   40100    301.42537    215.09069   -3169.6897   -2721.3424    441.52956    11997.682 
   40150    304.14546    215.23283   -3174.4276   -2722.0343    272.89086    12003.846 
   40200    296.57813    214.97669   -3165.8898   -2724.7523     431.4468    12009.911 
   40250    292.14714    214.81834   -3160.6113   -2726.0645    469.07839    12015.942 
   40300    297.54436    214.99509    -3166.503   -2723.9283    215.49816    12021.947 
   40350    282.34442    214.62544   -3154.1812   -2734.2153    520.76574    12027.852 
   40400    299.58768    215.13953   -3171.3177   -2725.7038   -53.490347    12033.721 
   40450    295.55573    214.97165   -3165.7217    -2726.105    55.103005    12039.352 
   40500    289.46175    214.74511   -3158.1704    -2727.618    264.73988     12044.75 
   40550    292.35672    214.94574   -3164.8581   -2729.9996     53.06776    12050.016 
   40600    300.65653    215.21114   -3173.7046   -2726.5008   -263.74265     12055.04 
   40650    291.45093    214.87253   -3162.4177   -2728.9065   -132.61294    12059.702 
   40700    298.39883    215.06903   -3168.9678   -2725.1222   -423.12971    12064.013 
   40750    290.68566    214.88687   -3162.8958   -2730.5229   -215.84227    12067.871 
   40800    294.03432    214.91935   -3163.9783   -2726.6245   -249.16731    12071.348 
   40850    308.46783    215.43191   -3181.0635    -2722.241    -741.3563     12074.42 
   40900    284.90553    214.71761   -3157.2537   -2733.4784   -124.02989    12076.902 
   40950    283.72087    214.70237   -3156.7455   -2734.7322   -119.43436     12079.03 
   41000    303.49268    215.21655   -3173.8851   -2722.4628   -677.65256    12080.818 
   41050    282.53514    214.55485   -3151.8284   -2731.5788    -44.10354    12082.059 
   41100    283.14073     214.6399   -3154.6632   -2733.5128   -50.979892    12082.985 
   41150    295.41481     214.9452     -3164.84   -2725.4329    -398.8177    12083.629 
   41200     291.1723    214.76513   -3158.8377    -2725.741   -262.24447    12083.842 
   41250    292.78758    214.88981   -3162.9937   -2727.4944   -355.61479    12083.653 
   41300    305.50495    215.30955   -3176.9849   -2722.5694   -745.57493    12083.013 
   41350    292.79304    214.86111   -3162.0371   -2726.5296   -329.00136    12081.763 
   41400    298.71927    215.00436   -3166.8119   -2722.4896   -461.29789    12080.055 
   41450     291.0185      214.755   -3158.4999   -2725.6319    -220.8367     12077.88 
   41500    290.24875    214.76166   -3158.7221    -2726.999    -137.4524     12075.33 
   41550     288.7498    214.66042   -3155.3473   -2725.8539    -22.66223    12072.471 
   41600    290.84423    214.71193   -3157.0645   -2724.4557   -29.850834    12069.341 
   41650    296.71743    214.88628    -3162.876   -2721.5313   -123.78618    12065.945 
   41700    288.07349    214.61964    -3153.988   -2725.5005    231.98746    12062.267 
   41750    298.65729    214.84707   -3161.5689   -2717.3389    -30.78789    12058.417 
   41800    303.07594    215.01925   -3167.3083   -2716.5059   -207.90633    12054.301 
   41850    295.55522    214.74227   -3158.0757   -2718.4597     178.3222     12049.87 
   41900    295.82575    214.74114   -3158.0378   -2718.0195    293.05201     12045.26 
   41950    298.35296    214.81528   -3160.5095   -2716.7321    249.26425    12040.544 
   42000    299.30657    214.75537   -3158.5123   -2713.3165    327.19809    12035.714 
   42050    295.93884    219.68813   -3156.2711   -2716.0845     475.6647    12030.817 
   42100    297.53108    219.73069   -3157.6895   -2715.1346    484.53048     12025.94 
   42150    301.68071    219.81625   -3160.5415   -2711.8143    417.87625    12021.091 
   42200    309.45125    220.13881   -3171.2937   -2711.0084    224.38633    12016.218 
   42250    303.32914    219.93639   -3164.5463   -2713.3671    535.45632    12011.249 
   42300    289.48592    219.40308   -3146.7693   -2716.1809    1078.3838    12006.363 
   42350    300.92367    219.70564   -3156.8548   -2709.2536     837.0424    12001.771 
   42400    311.32036    220.00187    -3166.729   -2703.6635    603.64553    11997.387 
   42450    313.37539    220.02625   -3167.5415   -2701.4194    617.01916    11993.094 
   42500    297.57674     219.5635   -3152.1168    -2709.494    1181.2959    11988.907 
   42550    290.41193    219.38301   -3146.1005   -2714.1347    1481.5722    11985.096 
   42600    315.00838    220.10864   -3170.2879   -2701.7368    812.41433    11981.789 
   42650     314.4901    219.97495   -3165.8318   -2698.0516        875.6    11978.715 
   42700     294.6627    219.35859   -3145.2862   -2706.9977     1511.686    11975.901 
   42750     304.4134    219.71184   -3157.0613   -2704.2694    1312.8237    11973.602 
   42800    302.96402    219.60479    -3153.493    -2702.857    1453.4624    11971.781 
   42850    305.18623    219.67698   -3155.8992   -2701.9578    1432.4026    11970.483 
   42900     303.0921     219.4549   -3148.4968   -2697.6702    1532.3196    11969.707 
   42950    310.84749    219.72851   -3157.6171    -2695.255    1312.8998    11969.465 
   43000    313.15892     219.7899   -3159.6633   -2693.8631    1217.1252    11969.677 
   43050    298.60693    214.27811   -3142.6035   -2698.4483    1577.4298    11970.297 
   43100    308.96826    214.66835   -3155.6116   -2696.0448    1165.8232    11971.447 
   43150     328.7061     215.2599   -3175.3299   -2686.4045      593.694    11972.941 
   43200    308.21349    214.61635   -3153.8784   -2695.4342    1271.5235    11974.524 
   43250    300.35017    214.34062   -3144.6875   -2697.9394    1640.0627    11976.484 
   43300    300.73942    214.35975    -3145.325   -2697.9979    1506.8903     11979.03 
   43350    308.15525    214.63409   -3154.4697   -2696.1121     1231.153    11982.096 
   43400    305.90846    214.60451   -3153.4838   -2698.4681    1270.4467    11985.581 
   43450    331.99758    215.26738   -3175.5795   -2681.7582    571.29967    11989.426 
   43500    329.11937     215.1729   -3172.4299   -2682.8898    591.69194    11993.338 
   43550    314.66892    214.76501   -3158.8337   -2690.7876    1010.8057    11997.311 
   43600    303.83605    214.43692   -3147.8973   -2695.9642    1275.8612    12001.545 
   43650    295.92265    214.15228   -3138.4092   -2698.2467    1453.2601    12006.194 
   43700    317.24837    214.79194   -3159.7314   -2687.8485     855.7808    12011.306 
   43750    314.66034    214.66159   -3155.3865   -2687.3531     798.0421    12016.653 
   43800    308.15492    214.49581   -3149.8604   -2691.5033    817.99959    12022.164 
   43850    328.71928    215.19252   -3173.0841   -2684.1391    176.64945    12027.789 
   43900    315.46125    214.70997   -3156.9989   -2687.7742    565.73499    12033.294 
   43950    300.02148    214.26936   -3142.3119   -2696.0527     942.6714    12038.828 
   44000    302.82292    214.38459   -3146.1529   -2695.7267    713.12547    12044.583 
[...]
   89400    314.31374    224.76661   -3158.8871   -2691.3692    527.50503    12031.249 
   89450    302.14348    224.42445   -3147.4818   -2698.0662    916.23203    12027.817 
   89500    314.56519    224.76325    -3158.775   -2690.8832    707.20375    12024.612 
   89550    302.55042    224.48858   -3149.6194   -2699.5986    1010.7143    12021.599 
   89600    307.94542    224.66657   -3155.5522   -2697.5068    810.97102    12018.855 
   89650     294.7098    224.24658   -3141.5528   -2703.1943    1160.2687    12016.366 
   89700     312.0556    224.74606   -3158.2021    -2694.043     692.2599    12014.207 
   89750    301.97212    224.39832   -3146.6107     -2697.45    996.13741    12012.242 
   89800    310.01651     224.6376   -3154.5868   -2693.4607    828.59644     12010.54 
   89850    301.72485    224.44341   -3148.1137   -2699.3209    1079.5066    12009.081 
   89900    301.22007    224.40752   -3146.9173   -2698.8752    1144.8327    12007.958 
   89950    298.75248    224.35009    -3145.003   -2700.6313    1144.7348    12007.217 
   90000    303.54511    224.59477   -3153.1591   -2701.6588    931.80025    12006.848 
   90050    312.50378    219.79996   -3159.9987   -2695.1731    642.86251    12006.736 
   90100    314.73642    219.90675   -3163.5583   -2695.4117    529.60754    12006.729 
   90150    309.02067     219.8903   -3163.0101   -2703.3653    664.66223    12006.774 
   90200    306.16443    219.81552   -3160.5172   -2705.1208    664.10095    12006.927 
   90250    312.28431    220.02864   -3167.6212    -2703.122    394.48796    12007.166 
   90300    316.99141     220.1438   -3171.4599   -2699.9592    317.57634    12007.373 
   90350    292.84082    219.37257   -3145.7522   -2710.1737    1028.4981    12007.545 
   90400    297.52027    219.59672   -3153.2241   -2710.6853    838.16439    12007.969 
   90450    297.80715    219.72188   -3157.3962   -2714.4306    779.84173    12008.616 
   90500    291.20405    219.50653   -3150.2176   -2717.0736    991.43781    12009.452 
   90550    297.95147    219.73813   -3157.9378   -2714.7576    761.35232    12010.564 
   90600    300.70351    219.88272   -3162.7574   -2715.4837    566.24091    12011.861 
   90650    304.92781    220.07693   -3169.2311   -2715.6741     399.8883    12013.196 
   90700    292.29798    219.67881   -3155.9603   -2721.1892    667.51075    12014.552 
   90750    320.78599    220.60828   -3186.9428   -2709.7979   -153.37574     12015.96 
   90800    296.71792    219.85397   -3161.7989   -2720.4535    586.90052     12017.13 
   90850    293.78775    219.82586   -3160.8622   -2723.8751    567.65228    12018.315 
   90900     288.9032    219.64565   -3154.8549   -2725.1333    616.57132    12019.569 
   90950    295.31897    219.93498   -3164.4994   -2725.2348    387.72691    12020.894 
   91000    286.35238    219.63295   -3154.4317   -2728.5042    617.43278    12022.234 
   91050    280.70739    224.52344   -3150.7814   -2733.2504    731.28704    12023.678 
   91100      299.143    225.17737   -3172.5791   -2727.6266    195.22559    12025.246 
   91150    296.80781    225.09593   -3169.8644   -2728.3853    186.47891    12026.741 
   91200    292.31694    224.99255   -3166.4184   -2731.6192    173.91539    12028.115 
   91250    287.96827    224.81684   -3160.5614   -2732.2304    257.54315    12029.366 
   91300      291.919     224.9758   -3165.8601   -2731.6527     97.47456    12030.531 
   91350    307.51372    225.47681   -3182.5603   -2725.1569   -355.46936    12031.502 
   91400    284.21844    224.70334   -3156.7779   -2734.0246    383.74011    12032.135 
   91450    283.24471     224.6264   -3154.2134   -2732.9084    393.14845    12032.722 
   91500    292.38304    224.98007   -3166.0024   -2731.1047    36.141999    12033.287 
   91550    280.92236    224.69025   -3156.3416   -2738.4909    392.39215    12033.687 
   91600    274.64149    224.41295   -3147.0984     -2738.59    675.89571    12034.074 
   91650    282.58852    224.71758   -3157.2526   -2736.9236    429.30837    12034.582 
   91700    291.91164    225.13705    -3171.235   -2737.0385    37.031688    12035.099 
   91750    285.02797    224.87435   -3162.4784   -2738.5209    171.77319    12035.462 
   91800    287.52731    224.97884   -3165.9612   -2738.2861    60.116104    12035.672 
   91850    278.50538    224.61709   -3153.9029   -2739.6472     297.2989    12035.723 
   91900    277.75714    224.60764   -3153.5881   -2740.4454    287.78491    12035.709 
   91950    280.61835    224.65223   -3155.0743   -2737.6758      210.942    12035.652 
   92000    295.70839     225.1103   -3170.3433   -2730.4995   -175.96581    12035.469 
   92050    287.69063    224.83764   -3161.2548   -2733.3368    92.119212    12035.004 
   92100    291.91044    225.03625   -3167.8751   -2733.6804   -10.356267     12034.34 
   92150     278.0592    224.59708    -3153.236    -2739.644      540.514    12033.496 
   92200    290.16177    224.89661   -3163.2202   -2731.6265    357.75787    12032.687 
   92250    285.49278    224.64833   -3154.9443   -2730.2954    481.72447    12031.884 
   92300    292.52638    224.93538   -3164.5126   -2729.4017    287.84678    12031.098 
   92350    292.14583    224.86938   -3162.3125   -2727.7678    446.52496    12030.266 
   92400    285.34588    224.56454   -3152.1515   -2727.7211    697.92754    12029.469 
   92450    308.04776     225.4009   -3180.0302   -2721.8325   -112.74048     12028.77 
   92500    300.48038     225.0658     -3168.86   -2721.9182     126.5006    12027.842 
   92550    290.65638    224.76333   -3158.7776   -2726.4483    563.27452    12026.759 
   92600    288.05744     224.5279   -3150.9299   -2722.4663    769.73358    12025.755 
   92650    309.85281    225.26748   -3175.5828   -2714.7002    114.22498    12024.892 
   92700     302.5164    224.94915   -3164.9718   -2715.0016     324.0577    12023.912 
   92750    293.00257    224.68267   -3156.0889   -2720.2698    654.49306    12022.883 
   92800    287.84994    224.41541   -3147.1803   -2719.0253    882.08849    12021.992 
   92850    291.09701    224.52989   -3150.9965   -2718.0118    786.68241    12021.329 
   92900    294.95804    224.57678   -3152.5594   -2713.8317    691.93475     12020.88 
   92950    295.49333    224.63367   -3154.4555   -2714.9316     670.5344     12020.58 
   93000    293.87236    224.54034   -3151.3448    -2714.232    767.13959    12020.415 
   93050    305.46253    224.87228   -3162.4094    -2708.057     487.7996    12020.428 
   93100    295.32344    224.55777   -3151.9257   -2712.6545     816.5217     12020.51 
   93150    285.10334    224.10184   -3136.7282   -2712.6585    1188.2479    12020.814 
   93200    306.97612    224.82621   -3160.8736   -2704.2699    555.65533    12021.469 
   93250    306.56573    224.70931   -3156.9769   -2700.9836    614.06611    12022.229 
   93300    305.17725    224.70129   -3156.7096   -2702.7815    652.65574    12023.082 
   93350    312.68849    224.77668   -3159.2225   -2694.1221    480.70311    12024.048 
   93400    310.94821    224.71241   -3157.0802   -2694.5683    540.25484    12025.049 
   93450     302.2565    224.43217   -3147.7388   -2698.1552     840.8851    12026.115 
   93500    299.70761    224.32871   -3144.2903    -2698.498    955.26707    12027.406 
   93550    296.99108    224.17415   -3139.1382   -2697.3865    1002.2036    12028.985 
   93600    303.07417    224.42919   -3147.6395   -2696.8396    715.32069    12030.845 
   93650    304.08388    224.40605   -3146.8685   -2694.5668    681.53357    12032.895 
   93700    314.14943    224.81776   -3160.5919   -2693.3184    416.92054    12035.059 
   93750    283.30933    223.69468    -3123.156   -2701.7549    1454.6604    12037.285 
   93800    280.81134    223.65204   -3121.7348   -2704.0492    1603.6834    12040.015 
   93850    316.81338    224.79201   -3159.7337   -2688.4978    609.26046    12043.322 
   93900    307.85009    224.44995   -3148.3318   -2690.4281      810.791    12046.806 
   93950    307.21403    224.41659   -3147.2197   -2690.2621    687.69404    12050.466 
   94000    304.74286     224.3349   -3144.4967   -2691.2148     547.0622     12054.28 
   94050    312.80672    219.61184    -3153.728   -2688.4517    232.91315    12058.136 
   94100     305.0126    219.36094   -3145.3648   -2691.6817    459.26304      12061.9 
   94150    300.57928    219.30413   -3143.4711   -2696.3822    592.88476     12065.65 
   94200     298.1292    219.17431   -3139.1438   -2695.6992    637.19888    12069.488 
   94250    309.89369     219.5784   -3152.6132   -2691.6698    175.28221    12073.413 
   94300    312.55446    219.77321   -3159.1071   -2694.2061   -28.968031    12077.202 
   94350    299.04994    219.26841   -3142.2802   -2697.4661    422.99963    12080.771 
   94400    294.45922    219.06704   -3135.5679   -2697.5821    570.28773    12084.313 
   94450    312.49743     219.6224     -3154.08   -2689.2637   -17.510716    12087.895 
   94500    303.20949    219.40125   -3146.7083   -2695.7072    118.60842    12091.271 
   94550    304.26783    219.44397   -3148.1323    -2695.557    26.315522    12094.449 
   94600    310.54657    219.58265   -3152.7549   -2690.8405   -174.41688    12097.403 
   94650    302.36594    219.34912   -3144.9705   -2695.2241    38.247202    12100.042 
   94700    293.28931    218.97651   -3132.5503   -2696.3047    305.71262    12102.469 
   94750    283.52956    218.67187   -3122.3958    -2700.667    566.73635    12104.828 
   94800    310.03753    219.51514   -3150.5045   -2689.3472   -273.07292    12107.194 
   94850     320.3413    219.90702   -3163.5673   -2687.0839   -627.48615    12109.208 
   94900    301.72357    219.31771   -3143.9238   -2695.1329    29.510305    12110.686 
   94950    296.45592    219.16128   -3138.7094   -2697.7537    145.28915    12111.902 
   95000    307.78865    219.50284   -3150.0946   -2692.2823   -264.70287    12112.931 
   95050    286.96409    223.82434   -3127.4781   -2700.6407    287.54868    12113.638 
   95100    289.20868    223.81061   -3127.0202   -2696.8443    258.92298    12114.242 
   95150    304.29381    224.34169   -3144.7232   -2692.1092    -295.8727    12114.749 
   95200    309.29482    224.48278    -3149.426   -2689.3734   -559.55801    12114.877 
   95250    296.59995    224.12146   -3137.3818   -2696.2119   -164.01874    12114.515 
   95300    293.66859    224.09304   -3136.4347   -2699.6249     19.57235     12113.84 
   95350    295.86599    224.10073   -3136.6912   -2696.6129    41.148704    12112.931 
   95400    292.25451    224.02434   -3134.1447   -2699.4383    150.65469    12111.833 
   95450    295.59563    224.14711   -3138.2369   -2698.5608    31.609103    12110.578 
   95500    303.66071    224.41569   -3147.1897   -2695.5174   -137.24499     12109.09 
   95550    302.46953    224.28537   -3142.8458   -2692.9453    2.3872437    12107.314 
   95600    291.43972    223.91361   -3130.4536   -2696.9591    355.18367    12105.335 
   95650    301.04533    224.33936   -3144.6455   -2696.8634     45.47435    12103.284 
   95700    292.06702     224.0625   -3135.4167   -2700.9892    314.44497    12101.061 
   95750    293.84685    224.11927   -3137.3091   -2700.2342    322.26532    12098.764 
   95800    294.84472     224.1769     -3139.23   -2700.6708    310.84924    12096.417 
   95850    296.96952    224.26329   -3142.1098   -2700.3901    241.44592    12094.009 
   95900    311.61993     224.7293   -3157.6432   -2694.1322   -218.29476    12091.461 
   95950    293.35898    224.14858   -3138.2861   -2701.9368    305.02735    12088.619 
   96000    295.55791    224.24578   -3141.5261   -2701.9061    285.50072    12085.681 
   96050    305.35679    219.50241   -3150.0804   -2695.8853    63.219647    12082.647 
   96100    307.85972     219.6637   -3155.4565   -2697.5385   -19.070091    12079.412 
   96150      299.949    219.46635   -3148.8785   -2702.7271    235.93529    12075.922 
   96200    297.54909     219.2711   -3142.3699   -2699.7882     459.5746    12072.302 
   96250    299.54862    219.42045   -3147.3484   -2701.7926     400.8258    12068.664 
   96300     298.8884    219.35261   -3145.0871   -2700.5132    478.37138    12065.003 
   96350    309.28488    219.79194   -3159.7314   -2699.6936    186.46319     12061.34 
   96400    311.88913    219.88831   -3162.9438   -2699.0323    142.54785    12057.538 
   96450     307.5983    219.69377   -3156.4589   -2698.9297    322.24062     12053.57 
   96500    301.96596    219.48862   -3149.6208   -2700.4693    508.31137    12049.519 
   96550    297.26852    219.46809   -3148.9363   -2706.7719     627.2778     12045.48 
   96600     316.3083     220.1374   -3171.2466   -2700.7619    133.32808    12041.495 
   96650    305.14326    219.70026   -3156.6752   -2702.7977    560.91144    12037.372 
   96700    291.34902    219.24449   -3141.4829   -2708.1233    996.86134    12033.282 
   96750    295.50583    219.34639   -3144.8797   -2705.3372    942.56109    12029.456 
   96800    293.97201    219.34558   -3144.8525   -2707.5915    994.55442    12025.885 
   96850    302.14575    219.61017   -3153.6722   -2704.2533    733.92059    12022.582 
   96900    314.98068    220.02588   -3167.5293   -2699.0194    372.43515    12019.418 
   96950    300.56146    219.45883   -3148.6277   -2701.5653    863.73941    12016.246 
   97000    300.31294    219.56433   -3152.1444   -2705.4517    843.98956    12013.251 
   97050    304.83815    219.72894   -3157.6312   -2704.2076    746.77642    12010.462 
   97100    298.96199    219.54671   -3151.5569   -2706.8736    937.89301    12007.844 
   97150     310.5719    219.92625   -3164.2085   -2702.2563    590.76867    12005.441 
   97200    297.64084    219.56554   -3152.1846   -2709.4665    923.64336    12003.131 
   97250    304.62797     219.7024   -3156.7465   -2703.6355    730.82933    12001.031 
   97300    299.87927    219.63209    -3154.403   -2708.3553     842.5754    11999.097 
   97350    300.68444    219.73696   -3157.8988   -2710.6535    834.36082    11997.333 
   97400    309.48495    220.04651    -3168.217   -2707.8815    609.28033     11995.75 
   97450    296.11853    219.68104   -3156.0346   -2715.5807    1018.9575    11994.287 
   97500    300.60267    219.82885   -3160.9618   -2713.8381    860.27706    11993.079 
   97550    295.40864    219.66964   -3155.6547   -2716.2567    928.35276    11992.112 
   97600    302.37861     219.9174   -3163.9135   -2714.1482    695.68103    11991.372 
   97650    302.81019    220.05185   -3168.3949   -2717.9877    657.81297    11990.771 
   97700    294.31751    219.72639   -3157.5464   -2719.7714    926.68563    11990.287 
   97750    298.10561    219.91209   -3163.7363   -2720.3268    757.85715    11990.034 
   97800    303.66154    220.09116   -3169.7053   -2718.0318    514.52352    11989.947 
   97850    301.45467     220.1435   -3171.4501   -2723.0592    500.64927    11989.898 
   97900     300.6534    220.17587    -3172.529   -2725.3298    486.55889     11989.88 
   97950     298.3538    220.02875   -3167.6249   -2723.8462    577.55505    11989.895 
   98000    300.13687     220.3001   -3176.6701   -2730.2392    377.07284    11989.952 
   98050    300.67635    225.35827    -3178.609   -2731.3758    257.68279    11989.983 
   98100     285.2517    224.79795   -3159.9315   -2735.6413    765.50108     11989.98 
   98150    291.44235    225.04874   -3168.2912   -2734.7928     558.1118    11990.112 
   98200     301.3935    225.49276   -3183.0919   -2734.7919     157.4837    11990.307 
   98250    285.58407      225.005   -3166.8333   -2742.0486    615.11269    11990.422 
   98300    288.04241     225.1926   -3173.0867   -2744.6454    501.55218    11990.625 
   98350    298.14237    225.49314   -3183.1046   -2739.6404    116.13809    11990.873 
   98400    288.17306    225.22564    -3174.188   -2745.5524    292.90322        11991 
   98450     282.0025    225.08295   -3169.4317   -2749.9744    412.34669    11991.055 
   98500    286.63875    225.19556   -3173.1853   -2746.8319    322.41423    11991.105 
   98550     275.5625    224.79146   -3159.7153    -2749.837    730.64734    11991.147 
   98600    283.43209    225.05641    -3168.547   -2746.9633    515.10233    11991.327 
   98650    288.83999    225.25657   -3175.2189   -2745.5913    351.68902    11991.579 
   98700    274.64818    224.71883   -3157.2942   -2748.7758     782.8715    11991.847 
   98750    290.38554    225.27437   -3175.8123   -2743.8859    319.16935     11992.25 
   98800    273.41818    224.77182   -3159.0606   -2752.3718    734.95957    11992.682 
   98850    292.13665    225.39757   -3179.9188   -2745.3877    140.31802    11993.221 
   98900    292.46704    225.32307   -3177.4356    -2742.413    134.67222    11993.658 
   98950    284.57885    225.09017   -3169.6724   -2746.3829    295.98493    11993.966 
   99000    289.38386    225.24493   -3174.8311   -2744.3945    147.48315    11994.201 
   99050    293.26051    225.41804   -3180.6014   -2744.3986    166.57933    11994.307 
   99100    282.76145    225.04524   -3168.1746   -2747.5884     566.5272    11994.312 
   99150    299.89694     225.6357   -3187.8565   -2741.7825    32.468634    11994.348 
   99200    279.79239    224.95343   -3165.1144   -2748.9445    594.36234    11994.262 
   99250    271.36827    224.65308   -3155.1027   -2751.4629    803.78965    11994.251 
   99300    282.99336    224.95965   -3165.3218   -2744.3906    440.62444    11994.435 
   99350    289.36254    225.08317    -3169.439   -2739.0342    287.20698    11994.653 
   99400    290.55915    225.12616    -3170.872   -2738.6873    350.17119    11994.819 
   99450    278.70396    224.72289   -3157.4296   -2742.8786     740.5369    11994.972 
   99500    289.19638    225.14354   -3171.4514   -2741.2937    481.79988    11995.263 
   99550    285.40355    225.03164   -3167.7212   -2743.2051    567.50739    11995.631 
   99600     286.3393    225.07625   -3169.2083   -2743.3003    510.26109    11996.089 
   99650    297.94314    225.32455    -3177.485   -2734.3171     253.2069    11996.614 
   99700    306.89363    225.65979   -3188.6596   -2732.1786    1.5562291    11997.044 
   99750    289.91274    225.14244   -3171.4148   -2740.1916    502.63412    11997.296 
   99800    297.42218    225.35881   -3178.6269    -2736.234    334.71418    11997.559 
   99850    291.96121    225.00115   -3166.7049   -2732.4347    511.73997    11997.814 
   99900    300.03117    225.23411   -3174.4703   -2728.1967    314.67383    11998.076 
   99950    289.81628    224.76386   -3158.7954   -2727.7157    675.18071     11998.34 
  100000    301.21425    225.19741   -3173.2471   -2725.2137    299.50733    11998.695 
Loop time of 26.8327 on 1 procs for 100000 steps with 500 atoms

Performance: 321.996 ns/day, 0.075 hours/ns, 3726.801 timesteps/s
99.8% CPU use with 1 MPI tasks x 1 OpenMP threads

MPI task timing breakdown:
Section |  min time  |  avg time  |  max time  |%varavg| %total
---------------------------------------------------------------
Pair    | 22.218     | 22.218     | 22.218     |   0.0 | 82.80
Bond    | 0.0067132  | 0.0067132  | 0.0067132  |   0.0 |  0.03
Neigh   | 0.5217     | 0.5217     | 0.5217     |   0.0 |  1.94
Comm    | 0.78077    | 0.78077    | 0.78077    |   0.0 |  2.91
Output  | 0.01808    | 0.01808    | 0.01808    |   0.0 |  0.07
Modify  | 2.7319     | 2.7319     | 2.7319     |   0.0 | 10.18
Other   |            | 0.5557     |            |       |  2.07

Nlocal:    500 ave 500 max 500 min
Histogram: 1 0 0 0 0 0 0 0 0 0
Nghost:    1590 ave 1590 max 1590 min
Histogram: 1 0 0 0 0 0 0 0 0 0
Neighs:    14581 ave 14581 max 14581 min
Histogram: 1 0 0 0 0 0 0 0 0 0

Total # of neighbors = 14581
Ave neighs/atom = 29.162
Ave special neighs/atom = 0
Neighbor list builds = 628
Dangerous builds = 0

write_data      ${walker}/final_restart_file
write_data      11/final_restart_file

quit
