LAMMPS (19 May 2017)
Processor partition = 11
  using 1 OpenMP thread(s) per MPI task
# gREM variables
variable        lambda world 1000 1005 1010 1015 1020 1025 1030 1035 1040 1045 1050 1055 1060 1065 1070 1075
variable        walker world 0 1 2 3 4 5 6 7 8 9 10 11 12 13 14 15
variable        replica world 2 3 4 6 13 0 1 7 11 14 9 8 5 10 12 15

variable        T0 equal 300.0
variable        press equal 0.0

units           real
atom_style      full
pair_style      lj/cut 5.0

# LJ particles
read_data       ${walker}/restart_file
read_data       11/restart_file
  orthogonal box = (0.979615 0.979615 0.979615) to (24.0204 24.0204 24.0204)
  1 by 1 by 1 MPI processor grid
  reading atoms ...
  500 atoms
  reading velocities ...
  500 velocities
  0 = max # of 1-2 neighbors
  0 = max # of 1-3 neighbors
  0 = max # of 1-4 neighbors
  1 = max # of special neighbors

#dump            dump all xyz 1000 ${walker}/dump.xyz

fix             fxnpt all npt temp ${T0} ${T0} 1000.0 iso ${press} ${press} 10000.0
fix             fxnpt all npt temp 300 ${T0} 1000.0 iso ${press} ${press} 10000.0
fix             fxnpt all npt temp 300 300 1000.0 iso ${press} ${press} 10000.0
fix             fxnpt all npt temp 300 300 1000.0 iso 0 ${press} 10000.0
fix             fxnpt all npt temp 300 300 1000.0 iso 0 0 10000.0
fix             fxgREM all grem ${lambda} -.03 -30000 fxnpt
fix             fxgREM all grem 1055 -.03 -30000 fxnpt
thermo_modify   press fxgREM_press

thermo          50
thermo_style    custom step temp f_fxgREM pe etotal press vol
WARNING: New thermo_style command, previous thermo_modify settings will be lost (../output.cpp:705)
timestep        1.0

temper/grem     100000 1000 ${lambda} fxgREM fxnpt 10294 98392 ${walker}
temper/grem     100000 1000 1055 fxgREM fxnpt 10294 98392 ${walker}
temper/grem     100000 1000 1055 fxgREM fxnpt 10294 98392 11
Neighbor list info ...
  update every 1 steps, delay 10 steps, check yes
  max neighbors/atom: 2000, page size: 100000
  master list distance cutoff = 7
  ghost atom cutoff = 7
  binsize = 3.5, bins = 7 7 7
  1 neighbor lists, perpetual/occasional/extra = 1 0 0
  (1) pair lj/cut, perpetual
      attributes: half, newton on
      pair build: half/bin/newton
      stencil: half/bin/3d/newton
      bin: standard
Per MPI rank memory allocation (min/avg/max) = 5.724 | 5.724 | 5.724 Mbytes
Step Temp f_fxgREM PotEng TotEng Press Volume 
       0    295.07914    248.34548   -3111.5159   -2672.6081   -570.68889    12231.817 
      50    279.99409    247.75261   -3091.7536   -2675.2836   -57.406312    12231.618 
     100    278.56073    247.72383   -3090.7944   -2676.4564    24.874831    12231.195 
     150    276.25517    247.59971   -3086.6571   -2675.7485    165.54526    12230.661 
     200    275.60754    247.56036   -3085.3454      -2675.4    272.21024    12230.059 
     250    276.28851    247.63696   -3087.8986   -2676.9403    294.19557    12229.451 
     300    293.72351    248.22029    -3107.343   -2670.4516   -287.35486    12228.824 
     350    296.50578    248.26489   -3108.8298   -2667.7999   -429.49748    12227.906 
     400    297.82982    248.39698   -3113.2326   -2670.2333   -529.58179     12226.59 
     450    288.94536    248.02132   -3100.7106   -2670.9263   -258.26042    12224.864 
     500    293.37096    248.19018   -3106.3393   -2669.9723   -310.88154    12222.826 
     550    290.78806    247.99974   -3099.9913   -2667.4661   -53.515774    12220.498 
     600    290.68462    247.97759   -3099.2529   -2666.8815    39.331439    12217.969 
     650    306.94848    248.64062    -3121.354   -2664.7914   -448.18978    12215.261 
     700    297.66231    248.28032   -3109.3439   -2666.5938   -42.701278    12212.204 
     750      279.103    247.50026    -3083.342   -2668.1974    691.79384    12208.989 
     800    280.17681    247.51163   -3083.7212   -2666.9794    767.39723    12205.976 
     850    289.60048    247.88951   -3096.3169   -2665.5582    556.04996    12203.206 
     900    290.86766    247.80595   -3093.5317   -2660.8881    538.09884     12200.62 
     950    317.41634    248.73562   -3124.5206   -2652.3878   -340.42888     12198.11 
    1000    296.10344    247.97013   -3099.0045    -2658.573    308.64834    12195.343 
    1050    308.05574    243.28047   -3109.3489   -2651.1393    8.5967515    12192.515 
    1100    298.94939    242.91984   -3097.3279   -2652.6633     476.9936    12189.559 
    1150    288.34174    242.44092   -3081.3641   -2652.4776    966.56128    12186.689 
    1200    302.15787    242.90433    -3096.811   -2647.3741    482.22741    12184.141 
    1250    304.10168    242.91151   -3097.0505   -2644.7222    524.70952    12181.696 
    1300    286.36957    242.35276   -3078.4252   -2652.4722    1191.6057      12179.4 
    1350    305.86992    242.99532   -3099.8439   -2644.8856    664.54066    12177.507 
    1400    304.11078    242.94523   -3098.1743   -2645.8325    764.70339    12175.839 
    1450    301.22331    242.80195   -3093.3984   -2645.3516    982.05921    12174.418 
    1500    307.72316     243.0229   -3100.7633   -2643.0484    740.32294    12173.338 
    1550    308.94478    243.03584   -3101.1948   -2641.6628    692.67959    12172.499 
    1600     313.3457    243.05649   -3101.8829   -2635.8049    601.58827    12171.839 
    1650    308.33013    242.90244    -3096.748   -2638.1303    779.84508    12171.348 
    1700    298.23155    242.48908   -3082.9692   -2639.3724    1164.1107    12171.118 
    1750    311.88102    242.92733   -3097.5776   -2633.6782    812.81863    12171.293 
    1800    311.71681    242.94394   -3098.1313   -2634.4762     732.0235    12171.768 
    1850    300.85995    242.57814   -3085.9379   -2638.4315    1022.7137    12172.484 
    1900    304.74374    242.67157   -3089.0523   -2635.7691      903.472    12173.561 
    1950    308.11443    242.83078   -3094.3592   -2636.0624    740.53925    12174.954 
    2000    306.04784    242.68937   -3089.6457   -2634.4227    752.24492    12176.586 
    2050    320.86189    243.28627   -3109.5424   -2632.2847    187.40653    12178.419 
    2100     328.8734    243.49541   -3116.5138   -2627.3395   -77.501629    12180.197 
    2150    313.77868    242.87386   -3095.7954   -2629.0734    447.61168    12181.801 
    2200    311.77367    242.85945   -3095.3151   -2631.5754    545.40292     12183.42 
    2250    297.00851    242.32721   -3077.5738   -2635.7962    1081.4269    12185.192 
    2300    310.84277    242.81912   -3093.9706   -2631.6155    703.26206    12187.327 
    2350    296.27715    242.25173   -3075.0577   -2634.3679    1083.4322     12189.74 
    2400    305.06133    242.64436   -3088.1454   -2634.3898      637.671    12192.523 
    2450    317.97256    243.12003    -3104.001   -2631.0409    161.00428    12195.474 
    2500    294.12659    242.20351   -3073.4504   -2635.9593    896.54407    12198.404 
    2550    303.86906    242.60127   -3086.7091   -2634.7269    580.52278    12201.585 
    2600    305.01843    242.64902   -3088.3005   -2634.6087    513.24421    12204.939 
    2650    290.00838    242.16208   -3072.0694   -2640.7039    1022.5866     12208.42 
    2700    300.56928    242.47733   -3082.5778   -2635.5037    688.72257    12212.247 
    2750    321.73919     243.2821   -3109.4033   -2630.8407   -119.10635     12216.27 
    2800     321.1162    243.23511   -3107.8371   -2630.2011   -133.27069    12220.097 
    2850     306.5096    242.73356   -3091.1186   -2635.2088    310.99231    12223.683 
    2900    291.74978    242.27171   -3075.7236   -2641.7679    727.51677    12227.265 
    2950    300.84428    242.56193   -3085.3976   -2637.9146    423.20312    12231.036 
    3000    299.96215    242.51129   -3083.7098   -2637.5388    468.49551    12234.892 
    3050    307.11151    247.74377   -3091.4591    -2634.654    249.65414    12238.833 
    3100    308.12962    247.81778   -3093.9259   -2635.6064     48.34037    12242.758 
    3150     306.2932    247.74779   -3091.5929    -2636.005   -60.825717     12246.57 
    3200    307.41641    247.76383   -3092.1278   -2634.8692   -61.764636    12250.192 
    3250    300.77133    247.51813   -3083.9378   -2636.5632    160.85117    12253.637 
    3300     299.7768    247.46827   -3082.2757   -2636.3805    110.33125    12257.007 
    3350    295.76162    247.31045   -3077.0148   -2637.0918    149.93464    12260.285 
    3400    288.10582    247.06891   -3068.9638   -2640.4282    319.81266    12263.505 
    3450    278.26801    246.72144   -3057.3814   -2643.4789     589.5768    12266.768 
    3500    294.77292    247.36603   -3078.8678   -2640.4154    14.231774    12270.163 
    3550    294.78429    247.36689   -3078.8965   -2640.4272   -2.3266823    12273.445 
    3600    296.39116    247.47716   -3082.5721   -2641.7127   -58.444639    12276.563 
    3650    298.95408    247.52323   -3084.1077   -2639.4362   -119.37462    12279.493 
    3700     290.6852    247.19838   -3073.2794   -2640.9072    81.322218    12282.221 
    3750    299.06642    247.46466   -3082.1555   -2637.3169   -249.31121    12284.822 
    3800    296.66697    247.34957    -3078.319   -2637.0494   -136.00511    12287.155 
    3850    293.59768    247.28477   -3076.1591   -2639.4549    24.652248    12289.246 
    3900    301.25266    247.52291   -3084.0968   -2636.0063   -198.07054    12291.175 
    3950    305.37651    247.74565   -3091.5218   -2637.2974   -439.46004    12292.845 
    4000    298.71711    247.46129   -3082.0432   -2637.7241   -211.36758    12294.156 
    4050    301.31488     242.5045   -3083.4834   -2635.3004   -182.82469    12295.159 
    4100    303.82035    242.59205   -3086.4018    -2634.492   -232.86949    12295.885 
    4150    305.38952    242.67825   -3089.2749   -2635.0311   -345.45801    12296.297 
    4200    296.45938    242.35904   -3078.6346   -2637.6737   -88.574894    12296.365 
    4250    289.18028    242.13446   -3071.1486   -2641.0148      81.7013    12296.218 
    4300    299.86331     242.5163   -3083.8765   -2637.8526   -253.29653    12295.904 
    4350    288.68281     242.0979   -3069.9302   -2640.5363    93.320209    12295.313 
    4400    301.58259    242.49492   -3083.1639   -2634.5826   -328.92399     12294.54 
    4450    297.53924    242.39527   -3079.8423   -2637.2753   -161.52907    12293.445 
    4500    290.36931    242.15517   -3071.8389   -2639.9366    142.21176    12292.087 
    4550    284.74599    241.89411   -3063.1371   -2639.5991    279.48095    12290.635 
    4600    295.98738    242.35258   -3078.4193   -2638.1605   -131.45359    12289.129 
    4650    286.09712    241.98517   -3066.1724   -2640.6246    151.20406    12287.434 
    4700    316.34658    243.04003   -3101.3344   -2630.7928   -702.45468    12285.559 
    4750    310.19435    242.83037   -3094.3457   -2632.9551   -449.54333    12283.189 
    4800    310.47355    242.77241   -3092.4137   -2630.6079   -307.92503    12280.357 
    4850    297.11439     242.2907   -3076.3565   -2634.4214    180.17861      12277.2 
    4900    294.72822     242.2003   -3073.3434   -2634.9575    262.24049    12273.944 
    4950    297.28901    242.35034   -3078.3447   -2636.1498     112.3247    12270.634 
    5000    296.46763    242.22742   -3074.2473   -2633.2742    260.89962    12267.225 
    5050    286.73108    246.81772   -3060.5906   -2634.0999    705.80136    12263.824 
    5100     300.0502    247.27636   -3075.8786   -2629.5766    321.90237    12260.593 
    5150    308.40189    247.64311   -3088.1037   -2629.3793    17.269164    12257.381 
    5200    305.54095    247.54605   -3084.8683   -2630.3993    185.19524    12254.029 
    5250    302.75853    247.42816   -3080.9386   -2630.6082    387.89722    12250.618 
    5300    295.51393    247.09828   -3069.9427   -2630.3881     677.9095    12247.259 
    5350    290.72516    246.86484   -3062.1615   -2629.7298    920.99111    12244.105 
    5400    303.84957     247.3262   -3077.5401   -2625.5869    514.66179    12241.267 
    5450    312.20154    247.54391    -3084.797   -2620.4208    278.89155    12238.552 
    5500    308.58821    247.51069   -3083.6897   -2624.6881    441.41961    12235.832 
    5550     307.7658    247.52475   -3084.1582   -2626.3799    501.84669    12233.187 
    5600    300.26573    247.17387   -3072.4623   -2625.8398     782.5517    12230.672 
    5650    302.37771    247.23782   -3074.5938   -2624.8299    729.05843    12228.393 
    5700    303.45118    247.32829   -3077.6096    -2626.249    697.90873    12226.354 
    5750    298.65052    247.16493   -3072.1642   -2627.9442    931.31879    12224.551 
    5800    302.86109    247.20343   -3073.4476   -2622.9647    976.36077    12223.082 
    5850    304.17232    247.25049   -3075.0162   -2622.5829    1042.6688    12221.988 
    5900    307.97825    247.39785   -3079.9282   -2621.8339    1005.6418    12221.304 
    5950    309.54413    247.40487   -3080.1622   -2619.7387    1026.7429    12221.007 
    6000    322.26931    247.82066   -3094.0218   -2614.6707    590.72082    12221.075 
    6050    309.95701    247.39234   -3079.7446   -2618.7071     937.1302    12221.355 
    6100    296.96273    246.78727   -3059.5755    -2617.866    1383.7965    12221.985 
    6150    311.02635    247.20917   -3073.6388   -2611.0107    944.64199    12223.166 
    6200    308.92223    247.03001   -3067.6671   -2608.1687     1055.125    12224.741 
    6250    305.75998    246.92263   -3064.0878    -2609.293    1211.8591    12226.725 
    6300    314.52531    247.15345   -3071.7816    -2603.949    964.84422    12229.204 
    6350    329.20214     247.6435   -3088.1168   -2598.4535    495.71473    12232.042 
    6400    324.42711    247.37695   -3079.2316   -2596.6709    734.91958    12235.034 
    6450    313.47438    246.94797   -3064.9325   -2598.6631    1175.6827     12238.28 
    6500    320.73099    247.27812   -3075.9374   -2598.8743    906.44054     12241.97 
    6550    318.21669    247.14039   -3071.3462    -2598.023    940.03931    12246.021 
    6600    305.48772    246.77797   -3059.2655   -2604.8757    1287.4661    12250.426 
    6650     309.1829     246.8324   -3061.0799   -2601.1937    1194.6242    12255.362 
    6700    312.59166     246.8286   -3060.9534    -2595.997    1013.8261    12260.816 
    6750    323.51292    247.10998   -3070.3326   -2589.1316    698.94353    12266.658 
    6800    315.81597     246.8411   -3061.3699   -2591.6176    917.23896    12272.778 
    6850    312.73174     246.6784   -3055.9467   -2590.7819    937.58559    12279.235 
    6900    311.19345    246.63076   -3054.3587    -2591.482    897.65285    12286.062 
    6950    318.85265    246.87408   -3062.4692      -2588.2    536.25067    12293.227 
    7000    314.99229     246.6655   -3055.5168   -2586.9896    613.96617    12300.566 
    7050    308.29283    246.38865   -3046.2884   -2587.7262    874.74734    12308.121 
    7100     312.8805    246.48367   -3049.4555   -2584.0695    768.42882    12316.006 
    7150    315.12801     246.5144   -3050.4799   -2581.7508    622.49635    12324.176 
    7200    317.25497    246.69243   -3056.4143   -2584.5216    456.38952    12332.539 
    7250    309.52875    246.32719   -3044.2395    -2583.839    582.74877    12341.038 
    7300    316.33748    246.60268   -3053.4228   -2582.8947    235.39412    12349.689 
    7350    312.92402    246.38334   -3046.1113   -2580.6606     243.9179    12358.372 
    7400    324.51107    246.88149   -3062.7163   -2580.0306   -210.81374    12367.011 
    7450    311.68557     246.3858   -3046.1934   -2582.5847    141.25243    12375.437 
    7500    318.00405    246.65861   -3055.2871   -2582.2802   -102.46669    12383.746 
    7550     300.4952    245.93925   -3031.3084   -2584.3445    462.29055    12391.897 
    7600    291.24238     245.6042     -3020.14   -2586.9391    639.73951    12400.157 
    7650    299.81341    245.95823    -3031.941   -2585.9913    210.98086    12408.615 
    7700    303.27155    246.02224   -3034.0746   -2582.9811   -34.135034    12417.069 
    7750    303.94407    246.15365   -3038.4549   -2586.3611   -240.29663    12425.356 
    7800    292.82503    245.74872   -3024.9573   -2589.4023    17.767505    12433.392 
    7850    303.95317    246.10148   -3036.7161   -2584.6088   -433.84729    12441.266 
    7900    325.29446     246.8297   -3060.9901   -2577.1392   -1219.4069    12448.724 
    7950    311.24611    246.41097   -3047.0323   -2584.0773   -784.53683    12455.395 
    8000    289.07301    245.53462   -3017.8208   -2587.8466   -8.8185604    12461.492 
    8050    303.35355    241.09891   -3036.6304    -2585.415   -565.60462    12467.357 
    8100    302.69044     241.1251   -3037.5035   -2587.2744   -764.51409    12472.753 
    8150    303.31693    241.16036   -3038.6785   -2587.5176   -828.66839    12477.527 
    8200    298.42964    241.04728   -3034.9094   -2591.0179   -718.88538    12481.675 
    8250     300.3114    241.02467   -3034.1555   -2587.4651   -742.85614     12485.24 
    8300    299.17254    240.97082   -3032.3608   -2587.3643   -785.03132    12488.202 
    8350    305.61827    241.23836   -3041.2787   -2586.6947   -1043.9643    12490.523 
    8400    303.94306    241.32062   -3044.0207   -2591.9284   -1125.5972    12492.089 
    8450    305.73217    241.40442   -3046.8142   -2592.0607   -1214.8825    12492.827 
    8500    303.98352     241.2465   -3041.5499   -2589.3975   -1059.7668    12492.704 
    8550     289.5738    240.87788   -3029.2628   -2598.5437    -571.0772    12491.802 
    8600    285.18749    240.75295   -3025.0982   -2600.9035   -398.01253    12490.376 
    8650    292.76609    240.99813    -3033.271   -2597.8036   -675.01405     12488.53 
    8700    297.65262    241.25207   -3041.7356   -2598.9999   -915.67992      12486.1 
    8750    286.72202    240.99046   -3033.0153    -2606.538   -697.38079    12482.994 
    8800    295.13958    241.35628   -3045.2093   -2606.2115   -1024.7537    12479.269 
    8850    291.98832    241.24507   -3041.5022   -2607.1917   -872.78818    12474.811 
    8900    288.39276    241.10489   -3036.8297   -2607.8673   -648.63463    12469.689 
    8950    308.12013     241.8877   -3062.9232   -2604.6178   -1241.0184    12463.954 
    9000    292.00817    241.44044   -3048.0146   -2613.6746    -845.0102    12457.396 
    9050    305.13334    241.92622   -3064.2073   -2610.3446   -1269.6529    12450.097 
    9100     294.6731     241.4997     -3049.99   -2611.6861   -910.34877    12441.941 
    9150    295.30713    241.67886    -3055.962    -2616.715   -984.69318    12433.045 
    9200    308.01991    242.23795   -3074.5983   -2616.4421   -1417.4893    12423.365 
    9250    296.78603    241.82169   -3060.7229   -2619.2762    -982.0477    12412.735 
    9300    297.08422    241.85726   -3061.9085   -2620.0183   -844.57052    12401.347 
    9350    284.78853     241.5285   -3050.9501   -2627.3487   -398.64474    12389.321 
    9400    292.60639    241.86294    -3062.098   -2626.8682    -534.2351    12376.847 
    9450     288.8291    241.81082   -3060.3607   -2630.7493    -372.4534    12363.925 
    9500    301.11277     242.3003   -3076.6768   -2628.7943   -674.71694     12350.57 
    9550    308.22926    242.66206   -3088.7352   -2630.2675   -791.33948    12336.665 
    9600    287.49954    241.88613   -3062.8712   -2635.2374    93.731745    12322.217 
    9650    289.70049    241.92913   -3064.3043   -2633.3967    213.64138    12307.601 
    9700    300.72942      242.416   -3080.5333    -2633.221   -98.256103    12292.916 
    9750    306.07793    242.73949   -3091.3163   -2636.0486   -153.22038    12278.019 
    9800    290.85278    242.27476   -3075.8254    -2643.204    560.90519    12262.913 
    9850    283.94358    242.05074    -3068.358   -2646.0134    952.57145    12247.929 
    9900    285.14145     242.1133   -3070.4435   -2646.3172    977.37043    12233.317 
    9950    300.74526    242.71067   -3090.3558     -2643.02    539.98642    12219.073 
   10000    298.40646    242.60651   -3086.8836   -2643.0266    679.80725    12205.016 
   10050    301.09093    237.73496   -3091.1654   -2643.3155    752.41893    12191.163 
   10100    302.71645    237.82867    -3094.289   -2644.0213     913.4397    12177.573 
   10150    290.16027    237.48959   -3082.9864    -2651.395     1388.425    12164.341 
   10200    305.54093    238.00164   -3100.0547   -2645.5857    1095.2015    12151.654 
   10250    295.89596    237.71224    -3090.408   -2650.2852    1521.1541    12139.457 
   10300    304.77054    238.13074    -3104.358    -2651.035    1363.0262    12127.883 
   10350     316.1146     238.5384   -3117.9467   -2647.7502    1058.3407    12116.874 
   10400    313.38101    238.42129   -3114.0432   -2647.9127    1207.3069     12106.29 
   10450    322.11208    238.82841   -3127.6136   -2648.4963    1010.8323    12096.157 
   10500     307.2193    238.33541   -3111.1805    -2654.215     1531.345    12086.461 
   10550    309.36132    238.44742   -3114.9141   -2654.7626    1511.6205    12077.368 
   10600    302.51197    238.22387   -3107.4624   -2657.4987    1723.4927    12068.945 
   10650    304.82862    238.35256   -3111.7521   -2658.3426    1642.4562    12061.284 
   10700    323.17674    239.03372   -3134.4574   -2653.7565    1115.5168    12054.294 
   10750      310.481    238.56396   -3118.7985   -2656.9816    1499.0039    12047.791 
   10800    315.67921    238.81748   -3127.2494   -2657.7005    1378.3355    12041.874 
   10850    302.25668    238.33844   -3111.2813   -2661.6974    1873.0064     12036.58 
   10900    311.87953    238.70481   -3123.4935   -2659.5963    1679.9466    12032.065 
   10950      306.391    238.51986   -3117.3286   -2661.5952    1911.7631    12028.292 
   11000    307.11828    238.54736   -3118.2452     -2661.43    1909.1229    12025.345 
   11050    312.29434    238.76084   -3125.3613   -2660.8472    1745.2975    12023.227 
   11100    309.01522    238.67129   -3122.3762   -2662.7395    1799.5811    12021.863 
   11150    308.29137    238.70816   -3123.6054   -2665.0454    1824.1824    12021.255 
   11200    306.84774    238.65599   -3121.8664   -2665.4536    1753.2772    12021.427 
   11250    308.28988    238.74135   -3124.7118    -2666.154    1582.6034    12022.349 
   11300    317.25322    239.09474   -3136.4913   -2664.6012    1237.1537    12023.893 
   11350    314.15641    238.95712   -3131.9039     -2664.62    1383.6611    12025.927 
   11400     309.9601    238.86799   -3128.9331    -2667.891    1549.8955    12028.503 
   11450    303.91595    238.63398   -3121.1328   -2669.0808     1696.957    12031.696 
   11500    306.69537    238.76737   -3125.5791    -2669.393    1550.5673    12035.579 
   11550     304.8455     238.7081   -3123.6032   -2670.1687     1540.992    12040.117 
   11600    320.23249    239.31217    -3143.739   -2667.4175    908.34782    12045.247 
   11650    312.21537    239.04917   -3134.9724   -2670.5757    1047.1494    12050.716 
   11700    303.84895    238.90053   -3130.0177   -2678.0654    1226.0896    12056.529 
   11750    306.11035     238.8996   -3129.9866   -2674.6707     1067.351    12062.789 
   11800     303.2231      238.809   -3126.9666   -2675.9453    1004.0806    12069.434 
   11850    299.85592    238.66851   -3122.2835   -2676.2706     1008.835    12076.422 
   11900    295.29475    238.56276   -3118.7586     -2679.53    1019.0364    12083.772 
   11950    299.87079    238.72773   -3124.2577   -2678.2227    738.25576    12091.449 
   12000    298.50771    238.65276   -3121.7586    -2677.751    717.08508    12099.343 
   12050    297.82817    238.57673   -3119.2244   -2676.2276    651.03608    12107.429 
   12100    292.40518    238.44528   -3114.8427   -2679.9121    706.14577    12115.667 
   12150    294.86302    238.48948   -3116.3161   -2677.7297    637.10326    12124.076 
   12200    286.42866    238.25958   -3108.6528   -2682.6119    770.13995    12132.649 
   12250    285.35493    238.15449   -3105.1496   -2680.7058    759.00718    12141.415 
   12300    292.33474     238.4224   -3114.0801   -2679.2544    326.54147    12150.373 
   12350    315.16494    239.25394   -3141.7979   -2673.0139   -537.14292    12159.266 
   12400    292.91794    238.48525    -3116.175   -2680.4818    96.143635    12167.741 
   12450    297.03213    238.62598   -3120.8659   -2679.0531   -102.58524    12176.009 
   12500    301.77967    238.77168   -3125.7226   -2676.8483   -352.46056    12184.022 
   12550    288.72797    238.23883    -3107.961      -2678.5    68.336766    12191.669 
   12600    289.05313    238.24685   -3108.2282   -2678.2835    70.405451    12199.133 
   12650    279.43968    237.95175   -3098.3917   -2682.7464    394.57495     12206.46 
   12700    269.14851    237.59628   -3086.5426   -2686.2046    618.03166    12213.792 
   12750    284.80363    238.08594   -3102.8646   -2679.2408   -117.88008    12221.221 
   12800    301.79087    238.57102   -3119.0339   -2670.1428   -838.33269     12228.39 
   12850    297.64825    238.43575    -3114.525   -2671.7958   -778.46835    12234.915 
   12900    284.24218     237.9588   -3098.6268   -2675.8381   -314.52042    12240.832 
   12950    283.89824    237.96264   -3098.7547   -2676.4775    -273.9346    12246.366 
   13000    275.65249    237.62158   -3087.3859   -2677.3737     -107.473    12251.568 
   13050     299.9835    238.43726   -3114.5755   -2668.3728   -937.71268    12256.448 
   13100    311.88363    238.83856   -3127.9519   -2664.0486   -1261.9047    12260.632 
   13150    282.83337    237.87767   -3095.9223    -2675.229   -295.16756    12263.988 
   13200    278.99423    237.68518   -3089.5059   -2674.5231    -150.7025     12266.94 
   13250    289.85931    238.03609   -3101.2029   -2670.0592   -534.71815    12269.593 
   13300    293.24388    238.15586   -3105.1955   -2669.0174   -653.94901    12271.756 
   13350    293.59993    238.21875   -3107.2916    -2670.584    -646.1124    12273.373 
   13400    274.17891    237.41575   -3080.5251   -2672.7047   -30.424504    12274.493 
   13450    283.04508    237.60272   -3086.7574   -2665.7493   -286.94071    12275.355 
   13500    282.54067    237.62838   -3087.6125   -2667.3547   -241.27797    12275.906 
   13550     286.9838    237.63313   -3087.7709   -2660.9042   -266.24172     12276.14 
   13600    302.35607    238.16756   -3105.5855   -2655.8537   -662.44451    12276.015 
   13650    285.13967    237.58888   -3086.2959   -2662.1722   -100.56138    12275.398 
   13700    298.10225    237.95922   -3098.6406   -2655.2361   -496.97722    12274.487 
   13750    294.52426     237.7943   -3093.1433   -2655.0608   -431.98761    12273.153 
   13800    289.58781    237.59104   -3086.3679   -2655.6279   -131.02169    12271.399 
   13850    282.66367    237.34884   -3078.2948    -2657.854    219.02822     12269.41 
   13900     289.1914    237.47422   -3082.4742   -2652.3239    61.454389    12267.356 
   13950    299.32876     237.8007   -3093.3566   -2648.1278   -164.39647    12265.159 
   14000    280.80487    237.08085   -3069.3615   -2651.6856    540.73898    12262.747 
   14050    280.18642    242.06795   -3068.9318   -2652.1757    576.15528    12260.437 
   14100    295.28235     242.5244   -3084.1466   -2644.9365    183.05731    12258.279 
   14150    307.11624    242.78887   -3092.9624   -2636.1503   -65.825157    12256.071 
   14200    306.32713    242.77053   -3092.3511   -2636.7127    14.038229    12253.678 
   14250    300.08356    242.65434   -3088.4782   -2642.1266    275.77065    12251.137 
   14300    294.96083    242.47155   -3082.3848    -2643.653    433.79605    12248.586 
   14350    302.98631    242.72547   -3090.8491   -2640.1799    155.11222    12246.094 
   14400    293.30996      242.414   -3080.4666   -2644.1903    466.74695    12243.561 
   14450    292.49484    242.25462   -3075.1539     -2640.09    592.93102    12241.105 
   14500    296.61852    242.35684   -3078.5613   -2637.3637    565.72773    12238.815 
   14550    293.75179    242.29491   -3076.4971   -2639.5636     707.7772    12236.692 
   14600    300.50041    242.45088    -3081.696   -2634.7244    446.85444    12234.778 
   14650    314.07858    242.91832   -3097.2774   -2630.1093    46.139058    12232.917 
   14700    296.35842    242.20075   -3073.3582   -2632.5475    730.77415    12230.978 
   14750    301.39474    242.40029   -3080.0097   -2631.7078    621.65295    12229.233 
   14800    296.89649     242.2494   -3074.9801    -2633.369    781.42033    12227.685 
   14850    305.55742    242.50305   -3083.4351   -2628.9416    554.74499    12226.357 
   14900    297.46595    242.26463   -3075.4876   -2633.0295    805.51886    12225.194 
   14950    300.16195      242.432   -3081.0667   -2634.5985    738.10288    12224.278 
   15000    301.89648    242.41518   -3080.5059   -2631.4578    729.14238    12223.612 
   15050    297.95687    247.15226    -3071.742   -2628.5538    886.01272    12223.202 
   15100    297.78216     247.2097   -3073.6566   -2630.7282    853.26271    12223.119 
   15150    305.03061    247.35921   -3078.6405   -2624.9306    732.32749    12223.314 
   15200    303.65608    247.36653   -3078.8844    -2627.219    812.19748    12223.752 
   15250    298.78462    247.31302   -3077.1007   -2632.6812    1048.6848    12224.479 
   15300    287.19969    246.89549   -3063.1831   -2635.9953    1433.3028    12225.624 
   15350    311.66056    247.65999   -3088.6663   -2625.0948    618.58471     12227.33 
   15400    316.43363    247.81608   -3093.8692   -2623.1981    429.19005    12229.245 
   15450    300.35321    247.24298   -3074.7661   -2628.0135     955.7782    12231.256 
   15500    307.91416    247.58472   -3086.1572   -2628.1582    604.06398    12233.567 
   15550    311.24301     247.6295   -3087.6501   -2624.6997    391.73704    12236.053 
   15600    303.77218    247.31425   -3077.1417   -2625.3036     633.7901    12238.592 
   15650    298.62736    247.09802   -3069.9341   -2625.7485    756.57625    12241.291 
   15700    296.16714    247.12608   -3070.8694   -2630.3432    708.09153    12244.242 
   15750    301.15111    247.32467    -3077.489   -2629.5496    588.30761    12247.401 
   15800    301.89121    247.36735   -3078.9118   -2629.8715    615.10279    12250.711 
   15850    300.67048    247.27127   -3075.7091   -2628.4845    661.44192    12254.194 
   15900    303.39805    247.38349   -3079.4498   -2628.1682     466.1515    12257.854 
   15950    315.44266    247.73676   -3091.2253   -2622.0282    12.832056     12261.56 
   16000    303.74157    247.30469   -3076.8231   -2625.0305     319.6897    12265.137 
   16050    300.71404    252.25421   -3075.1402   -2627.8509    368.51985    12268.692 
   16100    296.21532    252.08574   -3069.5246   -2628.9267    516.62458    12272.293 
   16150    284.34568    251.57002   -3052.3341   -2629.3914    917.01114     12276.04 
   16200    295.93641    252.09249   -3069.7498   -2629.5668    420.51431    12280.073 
   16250    308.71769      252.521   -3084.0333   -2624.8391   -45.588146    12284.164 
   16300     288.7065    251.72803   -3057.6011    -2628.172    539.18835    12288.149 
   16350    287.54213    251.75121   -3058.3738   -2630.6767    519.92625    12292.225 
   16400    296.44144    252.02698   -3067.5659   -2626.6317    194.46316    12296.398 
   16450    302.81371    252.23816   -3074.6052   -2624.1927   -57.289017     12300.52 
   16500    303.29131    252.30726   -3076.9087   -2625.7859   -40.886331    12304.452 
   16550    289.92944    251.80292   -3060.0974   -2628.8493    334.04629    12308.233 
   16600    293.11361    251.88966   -3062.9888   -2627.0045     68.48977    12312.003 
   16650    302.02185    252.20095   -3073.3651   -2624.1305   -257.56312    12315.635 
   16700    287.33724    251.66304   -3055.4348   -2628.0424    239.75984    12319.002 
   16750    294.21765    251.95964   -3065.3212   -2627.6948    37.242397    12322.296 
   16800    300.63807    252.15361   -3071.7871   -2624.6108   -215.88536    12325.459 
   16850    294.27065    251.84807   -3061.6023    -2623.897   -100.30479    12328.364 
   16900     303.4648    252.23479   -3074.4931   -2623.1122   -458.22655    12331.006 
   16950    288.29683    251.66097   -3055.3655   -2626.5458    60.225342    12333.274 
   17000    283.59207    251.37947   -3045.9822   -2624.1605    299.04619    12335.403 
   17050    284.20235    251.49786   -3049.9287   -2627.1993    293.18413    12337.535 
   17100    282.63468    251.43203   -3047.7343   -2627.3367     370.1614    12339.681 
   17150    302.85837    252.17701   -3072.5671   -2622.0882   -205.76483    12341.833 
   17200    280.65906     251.1847   -3039.4901   -2622.0311    605.91875    12343.818 
   17250    298.13356    251.84341    -3061.447   -2617.9959   -24.250895    12345.886 
   17300    304.12391    252.01094   -3067.0314   -2614.6701   -314.42724    12347.814 
   17350    297.29242     251.6848     -3056.16   -2613.9601   -71.240809    12349.428 
   17400    292.46961    251.41961   -3047.3204   -2612.2941    110.55483    12350.851 
   17450    302.18715    251.74929   -3058.3096   -2608.8291   -197.77147    12352.147 
   17500    296.94838    251.52314   -3050.7715   -2609.0833    29.694515    12353.208 
   17550    294.28665    251.36018   -3045.3392   -2607.6101    147.24241    12354.138 
   17600    310.33393    251.97428   -3065.8094   -2604.2113   -319.58271    12354.953 
   17650    294.39882    251.35125   -3045.0418   -2607.1459    293.94192    12355.505 
   17700    306.27899    251.79514    -3059.838   -2604.2712   -31.216572        12356 
   17750    307.03011    251.69387   -3056.4622   -2599.7782    59.596294    12356.351 
   17800    294.53067    251.07945   -3035.9818   -2597.8897    575.83491    12356.623 
   17850    303.74865    251.36293   -3045.4309   -2593.6278    331.41167    12357.013 
   17900    304.26405    251.34901   -3044.9671   -2592.3974    342.18825    12357.457 
   17950    309.01887    251.43606   -3047.8687   -2588.2265    281.78537    12357.956 
   18000    316.43261    251.65495   -3055.1648   -2584.4953    151.53016    12358.448 
   18050    306.62325    251.24768   -3041.5895   -2585.5107    525.57746    12358.892 
   18100    298.37755    251.00267   -3033.4224   -2589.6084    836.78682    12359.464 
   18150    299.77992    250.88493   -3029.4977   -2583.5978    846.89157     12360.34 
   18200    312.51278    251.31375   -3043.7917   -2578.9526     400.9155    12361.516 
   18250    320.10805    251.53868   -3051.2892   -2575.1528    199.54228    12362.763 
   18300    315.62125    251.33349   -3044.4497    -2574.987    451.90001    12363.961 
   18350    299.27291    250.77934    -3025.978   -2580.8323    1076.2405    12365.273 
   18400      303.687    250.89682    -3029.894   -2578.1826    809.51597    12366.996 
   18450    331.88388    251.84949   -3061.6498   -2567.9977   -220.08672     12368.94 
   18500    322.85836    251.55856    -3051.952   -2571.7247    112.45627     12370.67 
   18550    308.92306    250.96086   -3032.0288   -2572.5291    682.57847     12372.31 
   18600    314.09205    251.06089   -3035.3631   -2568.1749    520.59251    12374.118 
   18650    303.27504     250.6851   -3022.8365   -2571.7379     795.6354    12376.096 
   18700     308.5416    250.93885   -3031.2951   -2572.3629    577.11878    12378.321 
   18750    319.61185    251.36395   -3045.4651   -2570.0667    169.57553      12380.7 
   18800    309.35697    250.90495   -3030.1651     -2570.02     492.0242    12383.051 
   18850    310.77839     250.9952   -3033.1733    -2570.914    458.51565    12385.487 
   18900    306.65741    250.89171   -3029.7237    -2573.594    561.85887    12388.033 
   18950    308.49423      250.961   -3032.0335   -2573.1717    471.43475    12390.698 
   19000    305.81648    250.83518   -3027.8394   -2572.9605    523.96808    12393.471 
   19050    307.87201    250.87924   -3029.3081   -2571.3718    430.92193    12396.357 
   19100    314.29174    251.22162   -3040.7208   -2573.2357     103.8572    12399.299 
   19150    309.54493    251.01055   -3033.6849   -2573.2603    217.14357    12402.162 
   19200    311.49561    251.06323   -3035.4409   -2572.1148    161.02997    12404.948 
   19250     301.5525    250.78394   -3026.1313   -2577.5948    458.41203    12407.672 
   19300    300.23687    250.71996   -3023.9988   -2577.4192    463.61627     12410.47 
   19350    306.26371    250.86262   -3028.7542   -2573.2101    200.56561    12413.348 
   19400     299.8047    250.61858   -3020.6192   -2574.6824     337.6374    12416.196 
   19450    308.75888    251.00863   -3033.6209   -2574.3654   -15.045189    12419.028 
   19500    306.29194    250.90678   -3030.2261   -2574.6401    88.582644    12421.692 
   19550    296.57363    250.49941   -3016.6471   -2575.5163    401.82658    12424.254 
   19600    313.30743    251.18087   -3039.3623   -2573.3412   -252.41691     12426.81 
   19650    320.05383    251.40554   -3046.8512   -2570.7954   -487.97797    12429.075 
   19700     304.4146    250.82071    -3027.357   -2574.5633     26.19647    12430.937 
   19750    305.62005    250.95596   -3031.8655   -2577.2788   -147.24048    12432.603 
   19800    307.82024    251.07017   -3035.6722   -2577.8129   -337.76639    12434.011 
   19850    291.45613    250.48035   -3016.0118   -2582.4929    208.80487    12435.095 
   19900    295.69761    250.60116   -3020.0388    -2580.211    68.043465     12436.12 
   19950    307.72984    251.04025   -3034.6748     -2576.95    -386.3875    12437.011 
   20000    310.79729    251.13065   -3037.6882   -2575.4008   -483.93302    12437.527 
   20050    300.76625    255.84078    -3028.026    -2580.659   -210.98846    12437.646 
   20100    293.91823    255.69913   -3023.3044   -2586.1233   -62.029543      12437.5 
   20150    289.51464    255.50611   -3016.8705   -2586.2394    117.27709    12437.205 
   20200    304.38783    256.05338   -3035.1127   -2582.3589   -317.06402    12436.807 
   20250     305.9201    256.17669   -3039.2228   -2584.1899   -402.06198    12436.115 
   20300    301.14285    256.10366   -3036.7886   -2588.8614   -283.44894    12435.078 
   20350    295.07385     255.9261   -3030.8701   -2591.9701   -42.031797     12433.76 
   20400    286.13791    255.52717   -3017.5724   -2591.9639     336.6139    12432.315 
   20450    289.11121    255.62177   -3020.7258   -2590.6948     245.9579     12430.92 
   20500      304.199    256.23172   -3041.0573   -2588.5844   -387.45742    12429.511 
   20550    307.35914    256.34562    -3044.854   -2587.6805   -521.98655    12427.786 
   20600    302.61863     256.2503   -3041.6766   -2591.5543   -299.77323    12425.657 
   20650    308.01426    256.43149   -3047.7165   -2589.5686    -347.1552    12423.231 
   20700    301.36912    256.17494   -3039.1647    -2590.901   -11.176048    12420.508 
   20750    285.26392    255.52567   -3017.5223   -2593.2138     572.5864    12417.683 
   20800     294.9582    255.96605   -3032.2018   -2593.4738    189.16714    12415.025 
   20850    301.37957    256.21113   -3040.3712   -2592.0919   -19.511177    12412.377 
   20900    303.95552    256.27098   -3042.3661   -2590.2553   -68.827324     12409.61 
   20950    299.48377    256.12591   -3037.5304    -2592.071   -37.514055    12406.701 
   21000    294.31755    255.87521   -3029.1736   -2591.3985   -8.3513365    12403.679 
   21050    310.79592     256.5759   -3052.5299   -2590.2445   -649.65708     12400.49 
   21100     296.1294    256.04006   -3034.6687   -2594.1987   -147.99688    12396.905 
   21150    306.12003    256.44376   -3048.1252   -2592.7949   -407.01226     12393.08 
   21200     308.6978    256.52758   -3050.9194   -2591.7548   -376.35189     12388.95 
   21250    297.60081    256.22495   -3040.8318   -2598.1732    144.38169    12384.535 
   21300    294.41883     256.0655   -3035.5166   -2597.5909    439.64423    12380.082 
   21350    283.64217    255.69374   -3023.1246   -2601.2284    811.26365    12375.811 
   21400    300.69871    256.35308   -3045.1028   -2597.8362     290.1339    12371.844 
   21450    316.07785    256.86582   -3062.1942   -2592.0523    -199.7859    12367.934 
   21500    300.13323    256.39145   -3046.3816   -2599.9562    237.71736    12363.867 
   21550    289.17208    256.02442   -3034.1472   -2604.0256    595.86285    12359.829 
   21600    288.84173    256.05715   -3035.2385   -2605.6083    637.53307    12356.023 
   21650    293.68756    256.20803   -3040.2677   -2603.4297    542.75204    12352.467 
   21700    291.41562    256.13081   -3037.6936    -2604.235    649.25807    12349.139 
   21750    294.47948    256.20609   -3040.2029    -2602.187    540.89858    12346.064 
   21800    304.75864    256.67657   -3055.8857   -2602.5804    111.16247    12343.161 
   21850    296.61596    256.38824   -3046.2745   -2605.0808    419.44094     12340.25 
   21900    292.95202    256.15346   -3038.4487   -2602.7047    661.28289    12337.459 
   21950    304.36566    256.74473   -3058.1576   -2605.4368    236.24927    12334.897 
   22000      302.632    256.64224   -3054.7414   -2604.5992    312.14511     12332.38 
   22050    290.58015    256.18148   -3039.3826   -2607.1666    817.73428    12329.938 
   22100    294.22452     256.4118   -3047.0599   -2609.4233    665.70296    12327.812 
   22150    290.82266    256.35863   -3045.2876    -2612.711     648.9331    12325.963 
   22200    284.11898    256.10637   -3036.8791   -2614.2737    934.29544    12324.383 
   22250    292.34479    256.43465   -3047.8216   -2612.9808     710.9316    12323.185 
   22300    288.00692    256.37113   -3045.7043   -2617.3159    806.48952    12322.274 
   22350    281.75553    256.18855   -3039.6184   -2620.5284    953.85529    12321.694 
   22400    283.25667      256.228   -3040.9334   -2619.6106    793.44789     12321.52 
   22450    289.84328    256.63381   -3054.4604   -2623.3405    424.67317    12321.643 
   22500    279.43402    256.27777   -3042.5923   -2626.9554    673.01566     12321.92 
   22550    286.87115    256.59364   -3053.1215   -2626.4224    310.75539     12322.41 
   22600    291.07004    256.73248   -3057.7494   -2624.8048    107.77037    12322.966 
   22650    283.08485     256.5914   -3053.0467   -2631.9794    312.66586     12323.47 
   22700    278.06882    256.48527   -3049.5089   -2635.9026     383.8176    12324.009 
   22750    286.31034    256.94256    -3064.752   -2638.8871    -24.35911    12324.598 
   22800    288.28003    257.01672    -3067.224   -2638.4293   -140.35929    12325.072 
   22850    287.43006     257.0685   -3068.9499   -2641.4195   -122.35344    12325.338 
   22900    281.35842     256.8028   -3060.0934   -2641.5941    82.555925    12325.417 
   22950    282.05001    256.81181   -3060.3938   -2640.8658     43.72884    12325.405 
   23000    279.32062    256.74086   -3058.0286   -2642.5603    48.319211    12325.309 
   23050    285.84612    256.98931   -3066.3103   -2641.1358   -250.47527    12325.091 
   23100    279.46923    256.68201   -3056.0671   -2640.3778   -34.525585    12324.638 
   23150    280.00187    256.78815   -3059.6048   -2643.1233   -60.953958     12324.04 
   23200     283.0865    256.98108   -3066.0361   -2644.9664   -179.41043    12323.272 
   23250    282.84735    257.07905   -3069.3016   -2648.5876   -192.31413    12322.293 
   23300    280.79156    257.01341   -3067.1136   -2649.4574   -204.78247    12321.107 
   23350    282.31725    257.12495   -3070.8317   -2650.9062   -269.43405     12319.68 
   23400    280.07601       257.01        -3067   -2650.4081   -80.027441    12318.012 
   23450    276.02946    256.78682   -3059.5606   -2648.9877    173.67793    12316.204 
   23500    272.72084    256.68211   -3056.0705   -2650.4189    328.71064    12314.389 
   23550    282.11512    257.03073    -3067.691   -2648.0661    50.182231    12312.617 
   23600    282.32126    256.96173   -3065.3908   -2645.4594    43.472327    12310.778 
   23650    279.60331    256.90401    -3063.467   -2647.5783    167.88464    12308.869 
   23700    282.35882    257.03601   -3067.8669   -2647.8795    163.88502    12306.945 
   23750    281.30738    256.95203   -3065.0678   -2646.6444    289.36354    12305.018 
   23800    278.17382    256.76894   -3058.9648   -2645.2023    425.92349    12303.149 
   23850    282.21072    256.93066   -3064.3553   -2644.5882    290.13394    12301.388 
   23900    282.20319    256.91056   -3063.6853   -2643.9295     280.6631    12299.691 
   23950    279.72277    256.76465   -3058.8216   -2642.7551    350.13779    12298.046 
   24000    282.85184    256.85673   -3061.8911   -2641.1704    288.97802    12296.464 
   24050    285.49769    261.93154   -3064.3848   -2639.7286    325.81392    12294.944 
   24100    281.23033    261.79316   -3059.7719   -2641.4631    576.40305    12293.516 
   24150    283.27249    261.81843   -3060.6143   -2639.2679    611.59195     12292.31 
   24200     291.5804    262.10281   -3070.0937     -2636.39    320.92195    12291.321 
   24250    291.25903     262.0334     -3067.78   -2634.5542    294.12879    12290.404 
   24300    290.41146    261.96996   -3065.6653   -2633.7002    363.09979    12289.547 
   24350    288.01944    261.80603    -3060.201   -2631.7939    594.56824     12288.79 
   24400    279.58103    261.37155   -3045.7182   -2629.8626    977.25328    12288.268 
   24450    285.21877    261.57782    -3052.594   -2628.3527    824.78908     12288.15 
   24500    289.17696    261.71317   -3057.1056   -2626.9768    748.59563    12288.391 
   24550    291.77747    261.81902   -3060.6339    -2626.637    697.93456    12288.923 
   24600    287.38286    261.52043    -3050.681   -2623.2208    891.63019    12289.738 
   24650    292.13855    261.62278   -3054.0925   -2619.5586    728.90655     12290.91 
   24700    298.74909    261.81815    -3060.605   -2616.2384    517.86999    12292.363 
   24750    307.37034    262.16971   -3072.3235   -2615.1334    286.58284    12293.972 
   24800    298.27282    261.86701   -3062.2336   -2618.5754    590.45654    12295.649 
   24850    292.92679    261.52294   -3050.7646   -2615.0582    837.04723    12297.516 
   24900    290.32246    261.38744   -3046.2478   -2614.4152    955.42055    12299.716 
   24950      284.872    261.19866   -3039.9553   -2616.2298    1141.4661    12302.314 
   25000    282.57717    261.04412   -3034.8039   -2614.4917    1192.5244    12305.413 
   25050    296.38705    261.56982   -3052.3274   -2611.4741    638.58334    12309.003 
   25100    298.36234    261.58514   -3052.8381   -2609.0467    529.35486    12312.847 
   25150    307.91541     261.8145   -3060.4835   -2602.4826    326.21908    12316.823 
   25200    286.23892    260.94456   -3031.4852   -2605.7265    1157.0373    12320.911 
   25250    290.25795    261.10705   -3036.9016   -2605.1649    1148.1674    12325.433 
   25300    285.98071    260.78657   -3026.2189   -2600.8442    1265.5578    12330.478 
   25350     295.6352    261.25436   -3041.8122   -2602.0772    832.46734    12336.041 
   25400    295.29141    261.18436   -3039.4787   -2600.2551    814.77158    12341.931 
   25450    294.87988    261.13256    -3037.752   -2599.1406    789.59087    12348.117 
   25500    287.49817    260.79539    -3026.513   -2598.8813    1040.5216    12354.611 
   25550     296.4001    261.02698   -3034.2326   -2593.3599    695.48106     12361.49 
   25600    292.17908    260.98087   -3032.6957   -2598.1015    632.49391    12368.609 
   25650    289.05848    260.86397    -3028.799   -2598.8464    622.59219    12375.903 
   25700    288.61974    260.82288   -3027.4292   -2598.1292    499.73275    12383.385 
   25750    291.59955    260.82194   -3027.3981   -2593.6659    401.41798    12390.985 
   25800    290.32736    260.71471   -3023.8237   -2591.9838    495.41398    12398.642 
   25850    295.53479    260.88186   -3029.3952   -2589.8096    251.51587    12406.381 
   25900    301.30897    260.97464    -3032.488   -2584.3138   -13.292593    12414.085 
   25950    295.22408    260.69117    -3023.039   -2583.9156    149.18219    12421.626 
   26000    303.06885    261.05513   -3035.1711   -2584.3792   -129.63315    12429.047 
   26050    287.47613    265.46709   -3015.5696   -2587.9707    306.44907    12436.282 
   26100    292.96512     265.6736   -3022.4535     -2586.69    80.382005    12443.487 
   26150    297.37736    265.74417   -3024.8055   -2582.4792   -81.054959    12450.596 
   26200    298.79997    265.75184   -3025.0612   -2580.6189   -144.96298    12457.514 
   26250    294.08236    265.51293   -3017.0975   -2579.6723    4.7911223    12464.207 
   26300    288.96819    265.37427   -3012.4756   -2582.6574    173.33956    12470.747 
   26350    280.49953    265.05896   -3001.9653   -2584.7435    365.61058    12477.248 
   26400      287.911    265.32833   -3010.9444   -2582.6986     25.82213    12483.778 
   26450    293.98273    265.51688   -3017.2292   -2579.9522   -287.76043    12490.184 
   26500    299.94667    265.62509   -3020.8363   -2574.6884   -423.02371    12496.267 
   26550    285.70899    265.00017   -3000.0055   -2575.0351     163.0792    12502.004 
   26600    287.08506     265.0076   -3000.2532    -2573.236    103.93109    12507.645 
   26650     296.6697    265.29997   -3009.9989   -2568.7252   -324.19247    12513.162 
   26700    296.16661    265.27276   -3009.0919   -2568.5665   -457.04815    12518.362 
   26750    298.38696    265.28544   -3009.5146   -2565.6866    -557.2731    12523.158 
   26800    291.35479    264.96175   -2998.7251    -2565.357   -290.98018    12527.514 
   26850    288.92941    264.87167   -2995.7223   -2565.9617   -88.308178    12531.546 
   26900    289.84999    264.88972   -2996.3239    -2565.194   -83.973976    12535.392 
   26950    297.79987    265.19784   -3006.5948     -2563.64   -370.67533    12539.035 
   27000    291.86205    264.89262   -2996.4206   -2562.2979   -155.85139    12542.364 
   27050    289.77097    264.79806   -2993.2685   -2562.2562     32.11558    12545.461 
   27100    287.99824    264.64974   -2988.3246   -2559.9491    147.50318    12548.453 
   27150    306.20007    265.40409   -3013.4697   -2558.0203   -586.14387    12551.338 
   27200     298.1828    265.01177   -3000.3925   -2556.8682   -348.16656    12553.822 
   27250    296.06344    264.87383   -2995.7944   -2555.4225    -231.7558     12555.97 
   27300    282.91027    264.27998   -2975.9995   -2555.1919    259.40755    12557.899 
   27350    295.70391    264.63461   -2987.8202   -2547.9831    -103.4246      12559.8 
   27400    295.59758    264.65466   -2988.4885   -2548.8096   -135.43928    12561.539 
   27450    287.68343    264.30566   -2976.8554   -2548.9481    107.55084    12563.091 
   27500    299.12237    264.71786   -2990.5954   -2545.6735   -252.57946    12564.537 
   27550    293.81642    264.43588   -2981.1958   -2544.1662   -12.292282    12565.747 
   27600    292.38474    264.30452   -2976.8172    -2541.917    91.932266    12566.835 
   27650    297.65827    264.43181   -2981.0603   -2538.3162   -64.288554    12567.857 
   27700    293.07484    264.25956   -2975.3186    -2539.392    66.195129    12568.742 
   27750    303.07382    264.57437   -2985.8122   -2535.0129   -251.32475    12569.516 
   27800    300.92017    264.55847   -2985.2823   -2537.6864   -260.76382    12570.056 
   27850     297.9111    264.43231   -2981.0771   -2537.9569     -172.999    12570.343 
   27900    299.61824      264.493   -2983.0999   -2537.4405   -145.56901    12570.422 
   27950    297.60726    264.46359   -2982.1198   -2539.4515    1.7572366    12570.303 
   28000     286.7699    263.98676   -2966.2252   -2539.6767    430.06238    12570.105 
   28050    292.77206    264.17853   -2972.6175   -2537.1413    283.76436    12570.022 
   28100    306.74991    264.59679   -2986.5596   -2530.2924   -146.75433     12569.98 
   28150    307.94676    264.75833   -2991.9443   -2533.8969   -197.03743    12569.749 
   28200    292.03982    264.01813   -2967.2711    -2532.884     460.5377    12569.343 
   28250    301.23573    264.37566   -2979.1888   -2531.1235    237.26087    12569.055 
   28300     293.4456    264.07759    -2969.253   -2532.7749    461.99224    12568.834 
   28350    300.72628    264.30158   -2976.7195   -2529.4119    200.52393     12568.74 
   28400    304.82557    264.39276   -2979.7587   -2526.3538    67.463403    12568.653 
   28450    294.97344    264.07196   -2969.0653   -2530.3147    357.79365    12568.506 
   28500    305.33217    264.31697   -2977.2322   -2523.0738    144.65274    12568.421 
   28550    298.38819     264.1079   -2970.2634   -2526.4336    410.15075    12568.348 
   28600     306.5948    264.36894   -2978.9647   -2522.9282    90.076716    12568.368 
   28650    307.09875    264.40741   -2980.2469   -2523.4607    -104.3466    12568.324 
   28700     300.7301    264.17427   -2972.4756   -2525.1624    33.868249    12568.116 
   28750     299.2549    264.15009   -2971.6696   -2526.5506    154.69618    12567.813 
   28800    291.64793    263.81841   -2960.6135   -2526.8093    498.37414    12567.525 
   28850    303.17891     264.1939   -2973.1299   -2522.1743    192.38628    12567.369 
   28900    306.54519    264.32048   -2977.3493   -2521.3866   -1.4022855    12567.217 
   28950    309.80959    264.40516    -2980.172   -2519.3537   -147.60506    12566.966 
   29000    299.62868    263.98698   -2966.2328   -2520.5578    287.70264     12566.55 
   29050    303.81775    264.05905    -2968.635   -2516.7292    271.47821    12566.167 
   29100    302.07545     264.0288   -2967.6266   -2518.3123    360.31584    12565.858 
   29150    311.30426    264.50595   -2983.5318   -2520.4903    18.996102    12565.592 
   29200    299.18497    263.98413   -2966.1378   -2521.1228    463.22986    12565.287 
   29250    306.52935    264.25915   -2975.3051   -2519.3659    302.47571    12565.107 
   29300    311.29198    264.46947   -2982.3157   -2519.2925    70.378204    12564.983 
   29350     313.9088    264.61392   -2987.1306    -2520.215   -79.008846    12564.775 
   29400    301.19705    264.03963   -2967.9877   -2519.9799    385.06807    12564.453 
   29450    303.15082    264.17266    -2972.422   -2521.5081    416.41077    12564.215 
   29500    301.20945    264.05044   -2968.3479   -2520.3217    558.24128    12564.125 
   29550    309.62561    264.26842   -2975.6138   -2515.0692    355.95023    12564.225 
   29600    313.83467    264.48082   -2982.6941   -2515.8888    221.00111    12564.422 
   29650    323.31754    264.84934   -2994.9779   -2514.0676   -88.262517      12564.6 
   29700     314.3472    264.51957   -2983.9856    -2516.418    145.85339    12564.649 
   29750       309.59    264.36238   -2978.7462   -2518.2545    236.93163    12564.667 
   29800    313.60379    264.62334   -2987.4448    -2520.983    5.2281783    12564.695 
   29850    318.19286    264.83951   -2994.6503   -2521.3626    -170.5118    12564.608 
   29900    311.20974    264.48973    -2982.991   -2520.0901    201.28531    12564.348 
   29950    303.86139    264.26988   -2975.6625   -2523.6918     516.1199    12564.081 
   30000    310.49541    264.57373   -2985.7911   -2523.9527    270.07535    12563.967 
   30050    308.46358    259.54426   -2984.8086   -2525.9924    262.08556     12563.91 
   30100    316.05156    259.85009   -2995.0031   -2524.9003   -40.698521    12563.839 
   30150    308.80147    259.60154   -2986.7179   -2527.3991    122.60767    12563.658 
   30200    305.10447    259.61877   -2987.2923   -2533.4725    117.69378    12563.412 
   30250    309.78129     259.7562   -2991.8732    -2531.097   -172.36547    12563.088 
   30300    307.43379    259.67324    -2989.108   -2531.8235   -198.97177    12562.555 
   30350    305.28775    259.70181   -2990.0602   -2535.9678   -223.07748     12561.79 
   30400    318.36315    260.27981   -3009.3271    -2535.786   -736.48763    12560.743 
   30450    310.30082    260.02496   -3000.8321   -2539.2832   -512.94929    12559.198 
   30500    295.76128    259.52851   -2984.2836   -2544.3611   -82.301394    12557.263 
   30550    301.02228    259.80486   -2993.4955   -2545.7476   -295.75077    12555.117 
   30600    296.60985    259.70757   -2990.2522   -2549.0675   -145.07816    12552.723 
   30650    297.04686    259.77762   -2992.5872   -2550.7525   -76.862049    12550.127 
   30700     296.8182    259.78185   -2992.7284   -2551.2338   -2.0401493    12547.367 
   30750    298.84345    259.85967   -2995.3223   -2550.8153   -111.01913    12544.499 
   30800    301.81295    260.01035   -3000.3451   -2551.4212   -209.43538    12541.458 
   30850    302.18647    260.08357   -3002.7858   -2553.3063   -153.23587     12538.19 
   30900    292.28451    259.83659   -2994.5529   -2559.8018    92.270454    12534.751 
   30950    298.67782    260.10582   -3003.5273   -2559.2667   -245.81599    12531.226 
   31000    297.60916    260.07826   -3002.6085   -2559.9374   -281.49404    12527.469 
   31050    289.85201    259.75997   -2991.9991   -2560.8662    28.256532    12523.467 
   31100     297.8296     260.1134   -3003.7801   -2560.7811   -263.99955    12519.361 
   31150    307.63174    260.57291   -3019.0972   -2561.5183   -637.81263    12514.998 
   31200    302.58235     260.3736   -3012.4533    -2562.385   -412.91273    12510.215 
   31250    296.21646     260.1397   -3004.6566   -2564.0571   -125.19935    12505.103 
   31300    295.55708    260.18176   -3006.0586   -2566.4398   -130.04303    12499.814 
   31350    307.88295    260.68997    -3022.999   -2565.0465   -547.56865    12494.323 
   31400    290.90181    260.06894    -3002.298   -2569.6037    16.211353    12488.486 
   31450    287.92643    260.07135   -3002.3784   -2574.1097    136.62317     12482.54 
   31500     293.8465     260.3197   -3010.6567   -2573.5823    -10.57648    12476.577 
   31550     299.8517    260.62016    -3020.672   -2574.6654   -131.14714     12470.53 
   31600    301.91956    260.63762   -3021.2542   -2572.1717   -33.572715    12464.331 
   31650    286.09265    260.06923   -3002.3075   -2576.7664    552.66353    12458.065 
   31700     303.7044    260.86425   -3028.8084   -2577.0711   -25.313666    12451.964 
   31750    304.13252    260.78128   -3026.0427   -2573.6686    76.689751    12445.806 
   31800    302.88234    260.66392   -3022.1307   -2571.6162    365.61737    12439.614 
   31850    304.65567    260.76574   -3025.5245   -2572.3723    458.63774    12433.551 
   31900    311.78519    261.10413   -3036.8044   -2573.0476    234.75669    12427.636 
   31950    300.71931    260.72541   -3024.1802    -2576.883    559.19245    12421.802 
   32000    300.58776    260.68308   -3022.7693   -2575.6678     579.1954    12416.181 
   32050    308.97614    266.05688   -3035.2295   -2575.6509    344.48997    12410.796 
   32100    307.46278    265.92214   -3030.7379   -2573.4103    510.30856    12405.546 
   32150    297.17624    265.53849   -3017.9496   -2575.9224    833.37277    12400.533 
   32200    311.81573    266.14451   -3038.1502    -2574.348    270.91812    12395.864 
   32250    301.73513     265.8731   -3029.1035   -2580.2953    607.07277    12391.325 
   32300    284.18387    265.13619   -3004.5397   -2581.8377    1328.2585    12387.065 
   32350    289.53081    265.38255   -3012.7516   -2582.0965    1166.0457    12383.417 
   32400    291.19646    265.32385   -3010.7951   -2577.6624    1050.9827    12380.378 
   32450     302.5308    265.80044   -3026.6813   -2576.6896    699.90932    12377.813 
   32500    305.51365    265.90029   -3030.0096   -2575.5812    697.27514    12375.577 
   32550    302.57304    265.83796   -3027.9319   -2577.8775    829.02007    12373.644 
   32600    295.93832    265.58268   -3019.4226   -2579.2368    1076.6992    12372.067 
   32650    299.57456    265.65771   -3021.9237   -2576.3292    986.66348    12370.986 
   32700    307.29585    265.96573    -3032.191   -2575.1117    766.33056     12370.36 
   32750    296.87654     265.5811   -3019.3701   -2577.7888    1158.1118    12370.108 
   32800    305.03363    265.98239   -3032.7464    -2579.032     896.5252    12370.346 
   32850    294.54087    265.54798   -3018.2659   -2580.1587    1141.8859    12371.028 
   32900    317.34681    266.42694   -3047.5646   -2575.5353    312.85319    12372.158 
   32950    294.35858    265.64592   -3021.5308   -2583.6947    981.55574    12373.454 
   33000    294.83621    265.75773   -3025.2575    -2586.711    850.29799    12375.136 
   33050     303.1743    265.90335   -3030.1117   -2579.1629    519.68427    12377.184 
   33100    301.18833    265.81085   -3027.0284   -2579.0336    557.65642    12379.427 
   33150    302.66916    265.85568   -3028.5225   -2578.3251    492.80894    12381.862 
   33200    297.66412    265.66816   -3022.2719   -2579.5191    642.15177    12384.477 
   33250    309.54617    266.20407   -3040.1358   -2579.7094    168.02332    12387.282 
   33300    315.01842    266.31474   -3043.8247   -2575.2587    -37.24306    12390.081 
   33350    302.43235    265.83545   -3027.8483   -2578.0031    361.17528    12392.792 
   33400     308.7958    266.06777   -3035.5923    -2576.282     141.1503    12395.553 
   33450    299.09276    265.73297   -3024.4324   -2579.5546    369.28672    12398.308 
   33500    296.40097    265.58524   -3019.5081   -2578.6341    476.53654    12401.144 
   33550    303.56926    265.88243   -3029.4144   -2577.8781    237.27217    12404.101 
   33600     298.3376    265.73716   -3024.5721   -2580.8176    362.77371    12407.114 
   33650    290.72723    265.56088   -3018.6959   -2586.2612    633.19895    12410.228 
   33700    284.18272    265.35494   -3011.8313    -2589.131    903.24358    12413.574 
   33750    279.31454    265.17718    -3005.906   -2590.4468    989.14623    12417.313 
   33800    291.11396    265.71324   -3023.7746   -2590.7647    404.43592    12421.458 
   33850    293.28069    265.68485   -3022.8285   -2586.5957    213.02377    12425.748 
   33900    299.67451    265.93275   -3031.0915   -2585.3484   -190.63958    12430.028 
   33950    317.93879    266.64679    -3054.893   -2581.9831   -930.02106    12434.054 
   34000    291.38461    265.56169   -3018.7231   -2585.3106   -16.356134     12437.54 
   34050    291.01814    265.57629   -3019.2098   -2586.3424    12.563953    12440.829 
   34100    306.12556     266.1857   -3039.5232   -2584.1847   -536.72078    12443.982 
   34150    309.03335    266.23455   -3041.1515   -2581.4879   -693.72547    12446.749 
   34200    305.83506    266.07142   -3035.7139   -2580.8075   -564.56056    12449.022 
   34250    298.93094    265.85051   -3028.3504   -2583.7132    -233.9451    12450.864 
   34300    291.51001    265.63337   -3021.1122   -2587.5131    143.40564    12452.465 
   34350    285.45601    265.29958   -3009.9859   -2585.3917    418.09751    12454.045 
   34400    290.38507    265.52371    -3017.457   -2585.5312       207.49    12455.713 
   34450    289.89469    265.51214   -3017.0713   -2585.8749    102.07371    12457.413 
   34500    305.30328      266.171   -3039.0332   -2584.9177   -601.01152    12459.032 
   34550    305.74448    266.02213    -3034.071   -2579.2992   -594.45449    12460.235 
   34600    290.28542    265.56908   -3018.9695   -2587.1919   -139.10316    12461.029 
   34650    295.29317    265.70304   -3023.4346   -2584.2084   -370.22694    12461.606 
   34700    301.52938    266.04691   -3034.8969   -2586.3948   -612.34215    12461.864 
   34750    281.00101    265.19878   -3006.6259   -2588.6582    239.16593    12461.734 
   34800    293.27582     265.6751   -3022.5032   -2586.2776   -121.54172    12461.566 
   34850    296.97354    265.79495   -3026.4984   -2584.7727   -306.15388    12461.259 
   34900    291.05792    265.56567   -3018.8555   -2585.9289   -86.134042    12460.684 
   34950    283.69704    265.36045   -3012.0149    -2590.037    125.35005    12459.966 
   35000    287.65836    265.44918   -3014.9727   -2587.1027    62.730719    12459.202 
   35050    293.09702    260.66798    -3022.266   -2586.3064   -143.73831    12458.371 
   35100    310.35565    261.27677   -3042.5589   -2580.9284   -721.37772    12457.309 
   35150    298.90447    260.90537   -3030.1791   -2585.5813   -302.70557    12455.773 
   35200    287.11509    260.39464   -3013.1547   -2586.0927    239.69355    12453.959 
   35250     295.9555    260.70017   -3023.3389   -2583.1275    11.068005    12452.142 
   35300    306.26252    261.02463   -3034.1544   -2578.6121   -328.91246    12450.218 
   35350    296.94821    260.72912   -3024.3042   -2582.6162   -84.075805    12448.034 
   35400    302.57454    260.82642   -3027.5472   -2577.4905   -228.87159    12445.661 
   35450    304.75116     260.8753   -3029.1765   -2575.8823   -206.50102    12443.059 
   35500    294.69456    260.48068   -3016.0227   -2577.6869    270.67744    12440.252 
   35550    304.27923     260.8378   -3027.9267   -2575.3344    8.4599959    12437.445 
   35600    307.27088    261.00056   -3033.3519   -2576.3097    10.318065     12434.54 
   35650    296.75558    260.52533   -3017.5109   -2576.1095    596.33174    12431.542 
   35700    297.82713    260.51336   -3017.1121   -2574.1168    622.22773    12428.749 
   35750    301.02143     260.6171   -3020.5701   -2572.8236    478.02968    12426.197 
   35800    305.83367    260.74668   -3024.8893   -2569.9849    329.00992    12423.802 
   35850    295.29962    260.33626   -3011.2087   -2571.9729    661.42331     12421.51 
   35900    298.02091    260.33548   -3011.1825    -2567.899    666.44057    12419.457 
   35950    311.84887    260.92849   -3030.9495    -2567.098     265.7933    12417.634 
   36000    299.57189    260.43103   -3014.3676   -2568.7771    702.85533    12415.902 
   36050    306.47575    255.68826    -3022.942   -2567.0825    414.86498    12414.399 
   36100    319.66331    256.06938    -3035.646    -2560.171    33.005416    12412.984 
   36150    323.37063    256.19877   -3039.9589   -2558.9696    44.372241    12411.462 
   36200    319.22606    256.02456    -3034.152   -2559.3274    295.75377    12409.849 
   36250    328.51781    256.31449   -3043.8164   -2555.1711    50.654751     12408.23 
   36300    327.69722     256.3104   -3043.6801   -2556.2553    109.99201     12406.53 
   36350    305.29353    255.53331   -3017.7769   -2563.6759    1002.2744    12404.783 
   36400    299.31472     255.2142   -3007.1401   -2561.9321    1287.8498    12403.431 
   36450    312.60152    255.69373   -3023.1242   -2558.1532    679.93721    12402.641 
   36500    321.23799    256.00249   -3033.4164   -2555.5993    362.05264    12402.106 
   36550    328.23244    256.17764   -3039.2548   -2551.0339    93.843473    12401.637 
   36600    324.40987     256.0642   -3035.4735   -2552.9384    79.751809    12401.095 
   36650    318.74587     255.9333   -3031.1102   -2556.9998    197.90416    12400.448 
   36700    312.98416    255.75128   -3025.0428   -2559.5025    471.46945    12399.776 
   36750    304.02285    255.46189   -3015.3965   -2563.1855      799.405    12399.257 
   36800    305.68501    255.43944   -3014.6481   -2559.9648    678.19543     12399.03 
   36850    312.32989    255.69913   -3023.3042   -2558.7371    427.91212    12399.021 
   36900    311.69423    255.66503   -3022.1677   -2558.5462    572.91987     12399.13 
   36950    304.71431    255.50258   -3016.7527   -2563.5133    865.26439    12399.439 
   37000     314.3083    255.82248    -3027.416   -2559.9062    595.05885    12400.063 
   37050    307.83405    255.64888   -3021.6294   -2563.7496    739.86498    12400.904 
   37100    312.91741    255.73174   -3024.3914   -2558.9505    530.59544    12402.003 
   37150    311.49343    255.66172   -3022.0575   -2558.7346    536.69378    12403.263 
   37200    300.94173    255.28652   -3009.5506   -2561.9226     806.8901      12404.7 
   37250    312.40157    255.78557   -3026.1857    -2561.512    348.08765     12406.41 
   37300     308.1107    255.66954   -3022.3179   -2564.0266    499.41637    12408.212 
   37350    307.16257    255.78983   -3026.3278   -2569.4468    470.08777    12410.145 
   37400      307.586    255.84717   -3028.2389   -2570.7281    335.17395    12412.193 
   37450    317.05324    256.10678   -3036.8927      -2565.3   -33.750572    12414.252 
   37500    299.49749    255.48369    -3016.123   -2570.6432    446.89255    12416.212 
   37550    304.37452    255.75023   -3025.0075   -2572.2735    257.90623    12418.247 
   37600    302.75382    255.74062   -3024.6874    -2574.364    206.08382     12420.31 
   37650    317.87822    256.37169    -3045.723   -2572.9032   -437.11324    12422.298 
   37700    308.61386    256.00416   -3033.4719   -2574.4322   -217.86008    12423.941 
   37750    305.35266    255.92518   -3030.8393   -2576.6504   -150.36271    12425.297 
   37800    311.67136    256.26471   -3042.1572   -2578.5696   -446.08412    12426.421 
   37850    303.01131    256.01607   -3033.8691   -2583.1627   -272.38255    12427.181 
   37900    300.98739    256.07434   -3035.8114   -2588.1155   -326.21444    12427.632 
   37950    307.03246    256.33414   -3044.4712   -2587.7837   -522.55851     12427.75 
   38000     303.9135    256.31981   -3043.9936   -2591.9453   -443.88488    12427.448 
   38050    299.46298    256.07172   -3035.7241   -2590.2956   -203.59778    12426.767 
   38100    289.94374    255.77635   -3025.8783    -2594.609    74.071759    12425.848 
   38150    296.31008    256.05413   -3035.1376   -2594.3989   -220.75858    12424.813 
   38200    292.08323    255.96903   -3032.3009   -2597.8493   -132.54753    12423.551 
   38250    287.27451     255.8965   -3029.8832   -2602.5841    83.660924    12422.079 
   38300    283.47322    255.81691   -3027.2305   -2605.5855    202.87992     12420.53 
   38350     297.1314     256.3514   -3045.0467   -2603.0863   -290.57806     12418.93 
   38400    287.90172    256.04241    -3034.747    -2606.515   -37.986758    12417.092 
   38450     304.1104     256.6763   -3055.8765   -2603.5354   -575.58996     12415.05 
   38500    300.77891    256.51394   -3050.4647   -2603.0788   -456.78117    12412.593 
   38550    293.48923    256.28059   -3042.6862   -2606.1432   -207.89817     12409.75 
   38600     301.0402    256.48107   -3049.3689   -2601.5944    -344.9084    12406.641 
   38650    301.47365    256.60613   -3053.5378   -2605.1186   -380.24744    12403.212 
   38700    305.45821    256.79967   -3059.9889    -2605.643   -524.50278    12399.422 
   38750    284.40907    256.03678   -3034.5592   -2611.5223    203.60391    12395.258 
   38800    285.08155    256.00981   -3033.6604   -2609.6232    154.81054    12391.047 
   38850    302.19503     256.6992     -3056.64   -2607.1478   -440.87207    12386.769 
   38900    290.31345    256.33325   -3044.4416   -2612.6224   -16.318966    12382.177 
   38950    291.34801    256.32712   -3044.2375   -2610.8794    81.241721    12377.424 
   39000    290.15659    256.13505   -3037.8349    -2606.249    234.66342    12372.611 
   39050    290.37439    256.27872   -3042.6239    -2610.714    196.77274    12367.795 
   39100    301.32239    256.71585   -3057.1949   -2609.0006   -181.79282    12362.956 
   39150     303.7467    256.88412   -3062.8039   -2611.0037   -165.37669    12357.909 
   39200    286.85382    256.25452   -3041.8173    -2615.144    490.08348    12352.689 
   39250    297.31527     256.6587     -3055.29    -2613.056    135.95994    12347.561 
   39300    308.44439    257.02629   -3067.5429   -2608.7552   -236.47873     12342.38 
   39350    309.72848     257.1463   -3071.5433   -2610.8457   -330.27426     12336.95 
   39400    292.43431    256.52152   -3050.7172   -2615.7433    213.04404     12331.26 
   39450    296.65921    256.68508   -3056.1693   -2614.9112    185.59758    12325.545 
   39500    301.97953    256.91773   -3063.9244   -2614.7527    129.36124    12319.827 
   39550    300.99401    256.89401   -3063.1336   -2615.4278    240.06498    12314.077 
   39600    297.53984    256.73225   -3057.7416   -2615.1737    407.34713     12308.35 
   39650    306.33485    257.07778   -3069.2594   -2613.6096    145.99209    12302.697 
   39700    299.22473    256.76519   -3058.8398   -2613.7657    483.98368    12297.043 
   39750    288.61419    256.42045   -3047.3485   -2618.0567    987.25467    12291.539 
   39800    289.09711    256.49276   -3049.7588   -2619.7487    1082.9797    12286.431 
   39850    301.68542    256.93944   -3064.6481   -2615.9139    656.45151    12281.767 
   39900    304.12857    257.02296    -3067.432   -2615.0638    550.76609    12277.372 
   39950    304.27174    257.08278   -3069.4259   -2616.8448     634.4059    12273.155 
   40000    303.39126    256.92212   -3064.0708   -2612.7993    721.93246    12269.171 
   40050    307.43616    257.01455   -3067.1516   -2609.8637    664.77485    12265.433 
   40100    300.81393    256.69974   -3056.6581   -2609.2202    887.36959    12261.952 
   40150    315.01855    257.28491   -3076.1636   -2607.5974    294.62978    12258.784 
   40200    308.04603    257.07889   -3069.2964   -2611.1012    538.89544    12255.697 
   40250    298.99406    256.84625   -3061.5418   -2616.8108    910.61864     12252.77 
   40300    292.10897     256.6483   -3054.9434   -2620.4535    1066.3693    12250.227 
   40350    311.22803    257.29785   -3076.5948   -2613.6667    425.73632    12248.112 
   40400    309.28056    257.21954   -3073.9846   -2613.9532     564.6215     12246.14 
   40450    310.21488    257.25751   -3075.2502   -2613.8291    679.95873    12244.334 
   40500    308.74782    257.26477   -3075.4924   -2616.2534    710.19968    12242.784 
   40550    308.10678    257.25465   -3075.1551   -2616.8696    662.60539    12241.485 
   40600    305.12278    257.25578   -3075.1925   -2621.3455    647.62751    12240.409 
   40650    296.69224    256.95169   -3065.0565   -2623.7493    913.31119    12239.567 
   40700    273.39465    256.08727   -3036.2423   -2629.5885    1795.6287     12239.15 
   40750    292.64441    256.77605   -3059.2016   -2623.9152    1216.1079    12239.508 
   40800    311.03356    257.46592   -3082.1973   -2619.5585    505.32175    12240.407 
   40850    305.52556    257.28386   -3076.1288   -2621.6827    674.45745    12241.494 
   40900    291.81829    256.72712   -3057.5707   -2623.5132    1144.8788    12242.838 
   40950    304.06188    257.28132    -3076.044    -2623.775    645.94029    12244.611 
   41000    301.82726    257.17738   -3072.5793   -2623.6342    697.82983    12246.651 
   41050    302.22582    252.20278   -3073.4261   -2623.8881    690.91532    12248.947 
   41100    306.91671     252.4516     -3081.72   -2625.2047    471.21965     12251.45 
   41150    290.68736    251.91418   -3063.8059   -2631.4305    863.50906    12254.091 
   41200    296.58419    252.11662   -3070.5541   -2629.4076    601.53457     12257.03 
   41250    300.67548    252.30913   -3076.9711   -2629.7391    339.17622    12260.163 
   41300     294.2742    252.17358   -3072.4527   -2634.7422     461.3925    12263.359 
   41350    305.43666    252.49047   -3083.0158   -2628.7019    139.96613    12266.652 
   41400    303.48745    252.34847   -3078.2824   -2626.8678    261.06195    12269.898 
   41450    286.54885    251.82834   -3060.9447    -2634.725    764.36126    12273.175 
   41500    305.02367    252.61585   -3087.1951   -2633.4955    96.317136    12276.655 
   41550    300.42518    252.37298   -3079.0994   -2632.2397    97.651151    12280.084 
   41600    308.82075    252.65451   -3088.4836   -2629.1362   -302.11867    12283.387 
   41650    294.50627    252.23466   -3074.4887   -2636.4329   -59.769205    12286.409 
   41700    288.67074    252.15732   -3071.9108    -2642.535   -35.163142    12289.229 
   41750    290.64941    252.32609   -3077.5362   -2645.2173   -97.378879    12291.911 
   41800     287.5644      252.298      -3076.6   -2648.8697   -54.449375    12294.412 
   41850    301.98029    252.91659   -3097.2196   -2648.0468    -675.5875     12296.68 
   41900    290.15756    252.49967   -3083.3225   -2651.7351   -401.79257    12298.488 
   41950     285.1299    252.32302   -3077.4339   -2653.3248   -206.59363    12299.918 
   42000    276.64621    252.15484   -3071.8282   -2660.3379    13.638889    12301.104 
   42050    266.26998    256.77941   -3059.3136   -2663.2572    316.50884    12302.191 
   42100    283.78144     257.4495   -3081.6499   -2659.5465   -279.98491    12303.277 
   42150    289.45087    257.77506    -3092.502   -2661.9658   -612.34421    12304.102 
   42200    288.11792    257.77394   -3092.4647   -2663.9111   -757.39004    12304.481 
   42250    283.44656    257.67669   -3089.2229   -2667.6176   -718.58718    12304.327 
   42300     280.5055    257.46767   -3082.2557    -2665.025    -504.6551    12303.659 
   42350    267.08655    257.01773   -3067.2575   -2669.9865   -17.498341    12302.612 
   42400    270.79462    257.15291   -3071.7636   -2668.9772   -213.57946    12301.396 
   42450    279.54882    257.57144   -3085.7147    -2669.907   -605.28705    12299.932 
   42500    279.42392    257.61869   -3087.2898   -2671.6679   -559.46848    12298.036 
   42550    269.92849    257.30264   -3076.7546   -2675.2564   -241.24456    12295.733 
   42600    277.44423    257.56976   -3085.6586   -2672.9813   -536.43628    12293.143 
   42650    289.65513    257.97075   -3099.0249   -2668.1848   -844.87307    12290.125 
   42700    290.83632    258.06551   -3102.1837   -2669.5867   -733.83583    12286.531 
   42750    280.09732    257.61792   -3087.2642   -2670.6406   -233.68922    12282.446 
   42800     272.7737    257.29407    -3076.469   -2670.7388    132.43051    12278.101 
   42850    280.64548    257.53991   -3084.6635   -2667.2247   -30.221994    12273.678 
   42900    277.55464    257.48846   -3082.9486   -2670.1072    88.974094     12269.14 
   42950    286.19186    257.75675   -3091.8916   -2666.2029   -167.25209    12264.517 
   43000     284.5561     257.7198   -3090.6601   -2667.4045   -14.345948    12259.701 
   43050    280.63273    252.50119   -3083.3729    -2665.953    168.11902    12254.759 
   43100    290.97346    252.90246   -3096.7487   -2663.9477   -204.05953    12249.753 
   43150    276.28209    252.36154   -3078.7181   -2667.7694    325.31733    12244.554 
   43200    291.42585    252.86767   -3095.5889    -2662.115   -5.3414873     12239.33 
   43250    281.67337    252.50318   -3083.4395   -2664.4717    405.86879     12234.03 
   43300    291.59032    252.85224   -3095.0747   -2661.3562    196.62191    12228.785 
   43350     296.8935     253.0341   -3101.1365     -2659.53    69.354913     12223.53 
   43400     289.2145    252.66063   -3088.6876   -2658.5029    410.80015    12218.204 
   43450    289.15457    252.62848   -3087.6162   -2657.5206    520.25682    12212.938 
   43500    291.88015    252.73952   -3091.3172   -2657.1676    541.03924    12207.805 
   43550    286.13441    252.46086   -3082.0286   -2656.4254    898.19528    12202.851 
   43600    281.71846    252.20778   -3073.5926   -2654.5577    1130.1024    12198.262 
   43650    296.92437    252.74133   -3091.3777   -2649.7252     624.1774    12194.099 
   43700    298.14867    252.82552   -3094.1839   -2650.7104    604.01301    12190.165 
   43750    302.86342    252.90439   -3096.8131   -2646.3267    582.44564    12186.424 
   43800    306.45527       253.03   -3101.0001   -2645.1711    539.84512    12182.845 
   43850    295.50641    252.62399   -3087.4665   -2647.9231    956.32319    12179.444 
   43900    301.50293    252.76614   -3092.2046   -2643.7418    913.87388    12176.398 
   43950    304.31484    252.81043   -3093.6811   -2641.0358    870.61042    12173.708 
   44000    298.53648    252.65281    -3088.427   -2644.3766    976.10386    12171.356 
[...]
   89400    313.04029    247.37957   -3079.3189   -2613.6952   -245.37865    12306.151 
   89450    302.87467    247.12872   -3070.9575   -2620.4544    80.388613    12309.257 
   89500    291.36743    246.63695    -3054.565    -2621.178    552.83821    12312.281 
   89550    294.62533    246.76453   -3058.8176   -2620.5848    395.07713    12315.448 
   89600    300.66912    246.93289   -3064.4296   -2617.2071    85.556354      12318.7 
   89650     307.0767    247.16866   -3072.2888   -2615.5355   -167.54711    12321.845 
   89700    299.71068    246.91423   -3063.8078   -2618.0109    108.25658    12324.787 
   89750    287.39472    246.43873   -3047.9577   -2620.4798    492.53803    12327.679 
   89800    303.93559    246.95969   -3065.3232    -2613.242    24.620427    12330.642 
   89850    296.11975    246.64447   -3054.8156   -2614.3599    293.95377    12333.533 
   89900    295.57974     246.5512   -3051.7066   -2612.0542    330.51321    12336.444 
   89950    291.70592    246.37243   -3045.7476   -2611.8572    407.93463    12339.399 
   90000    298.68599    246.65167   -3055.0557   -2610.7829    121.89168     12342.42 
   90050    299.59164    251.71193   -3057.0644   -2611.4445   -37.010415    12345.396 
   90100    311.70001    252.10264   -3070.0879   -2606.4578   -437.26096     12348.19 
   90150    285.96342    251.17073   -3039.0244   -2613.6755    471.87748    12350.692 
   90200    288.55919    251.13605   -3037.8685   -2608.6586    524.89988    12353.265 
   90250    309.01104    251.87697   -3062.5655    -2602.935   -122.94544    12355.969 
   90300    307.76093    251.86518   -3062.1726   -2604.4015   -49.404501    12358.507 
   90350    283.56352    250.87886   -3029.2953    -2607.516    784.43872    12360.934 
   90400    300.41176    251.45084   -3048.3612   -2601.5215    226.50201    12363.587 
   90450    310.05507    251.75194   -3058.3981   -2597.2147   -75.863362    12366.263 
   90500    306.24996    251.63559   -3054.5198   -2598.9962    28.185366    12368.778 
   90550     313.0402    251.73453   -3057.8177   -2592.1941   -161.24288    12371.137 
   90600    302.73633    251.32124   -3044.0412   -2593.7439    193.60734    12373.303 
   90650    302.01361    251.18536   -3039.5119   -2590.2895    369.16015    12375.432 
   90700    299.97496    251.08651    -3036.217    -2590.027    427.22789     12377.63 
   90750    303.80559    251.12384   -3037.4613   -2585.5735    289.04264    12379.904 
   90800    303.30468    251.04771   -3034.9236   -2583.7808    330.25445    12382.222 
   90850    306.09403    251.13448    -3037.816   -2582.5243     249.2778    12384.589 
   90900    306.50288    251.09044    -3036.348   -2580.4482    288.88336    12386.963 
   90950     307.8626     251.0919   -3036.3967   -2578.4744    344.09461    12389.347 
   91000    281.82121    250.02146   -3000.7153   -2581.5276    1293.8415    12391.847 
   91050    291.73117    250.43025   -3014.3416   -2580.4136    946.21186    12394.862 
   91100    308.01625    251.06559   -3035.5195   -2577.3687    353.96907    12398.279 
   91150    305.77682    250.84615    -3028.205   -2573.3852     513.5158    12401.809 
   91200    306.95144     250.7297   -3024.3234   -2567.7564    450.63103    12405.485 
   91250    326.76774    251.50058   -3050.0195   -2563.9772     -278.684    12409.242 
   91300    312.81347    250.90014   -3030.0046   -2564.7183    301.73673    12412.785 
   91350    297.40416    250.42433   -3014.1444   -2571.7782    829.02942     12416.37 
   91400    315.69922    251.07897   -3035.9656   -2566.3869    201.98244     12420.22 
   91450    306.06322     250.6402     -3021.34   -2566.0942    479.14277    12424.121 
   91500    314.89399    250.98717   -3032.9057   -2564.5248    206.43622     12428.12 
   91550    309.63634    250.68985    -3022.995   -2562.4345    354.00803    12432.137 
   91600    314.40017    250.95448   -3031.8161   -2564.1697    84.079738      12436.2 
   91650    320.00506    251.13518   -3037.8395   -2561.8562   -150.67426    12440.193 
   91700    307.74608    250.61343   -3020.4476   -2562.6986    176.00903    12444.015 
   91750    308.58812    250.74134   -3024.7114     -2565.71    72.941081    12447.776 
   91800    314.10078    250.91436   -3030.4787   -2563.2776   -59.761765    12451.454 
   91850    313.85073     250.8398   -3027.9934   -2561.1642    32.368077    12454.978 
   91900    315.22954    250.85646   -3028.5487   -2559.6687    -21.38183    12458.382 
   91950    304.93707    250.39735   -3013.2449   -2559.6741    315.03612    12461.669 
   92000    293.77091    249.90773   -2996.9242   -2559.9622    630.78473    12464.999 
   92050    306.17653    255.45734   -3015.2446   -2559.8302     19.34501    12468.508 
   92100     310.6907     255.6686   -3022.2867   -2560.1578    -277.8845    12471.937 
   92150    308.30609    255.55613   -3018.5378   -2559.9559   -173.55445     12475.11 
   92200    299.45246    255.22749   -3007.5829   -2562.1701    143.76665    12478.065 
   92250    301.23613     255.3383   -3011.2768   -2563.2109    16.352443     12480.96 
   92300     301.4972    255.23347   -3007.7823   -2559.3281   -60.620598    12483.755 
   92350    289.00754    254.81452   -2993.8172   -2563.9404    329.27238    12486.432 
   92400    299.89815    255.27268   -3009.0892   -2563.0134   -19.554459    12489.147 
   92450    308.03207    255.55558   -3018.5194    -2560.345   -251.97002    12491.736 
   92500    287.01115    254.78371   -2992.7902   -2565.8829    468.61742    12494.128 
   92550    313.84316     255.7524   -3025.0799    -2558.262   -375.41701    12496.553 
   92600     302.4427    255.26209   -3008.7362   -2558.8756   -189.38931    12498.726 
   92650    300.65131    255.26846   -3008.9487   -2561.7527   -261.86188    12500.615 
   92700    293.97204    255.11688   -3003.8961    -2566.635   -179.38818    12502.242 
   92750    301.51427    255.40975   -3013.6584   -2565.1788   -403.54195    12503.618 
   92800    303.73997    255.42218   -3014.0728   -2562.2826   -407.56839    12504.644 
   92850     309.3225    255.65792   -3021.9308    -2561.837   -590.99516    12505.283 
   92900    308.90692    255.61652   -3020.5507    -2561.075   -563.85885    12505.456 
   92950    296.96788    255.15853   -3005.2843   -2563.5671   -251.06767     12505.19 
   93000    307.02341    255.60724   -3020.2412   -2563.5672   -678.21746    12504.589 
   93050        303.7     250.5242   -3017.4734   -2565.7427   -558.75608     12503.48 
   93100    294.70392    250.22625   -3007.5415   -2569.1918   -163.91024    12501.909 
   93150    300.71002    250.47859   -3015.9529   -2568.6696   -303.49685    12500.062 
   93200    300.67997    250.51465   -3017.1549   -2569.9162   -326.12795    12497.891 
   93250    308.08651      250.766   -3025.5335   -2567.2781   -536.58734     12495.35 
   93300    307.12366     250.7949   -3026.4965   -2569.6733   -476.74936    12492.342 
   93350    293.83386    250.41631   -3013.8771   -2576.8215    -72.96841    12488.916 
   93400    301.63581    250.65794   -3021.9315   -2573.2711   -301.04209    12485.248 
   93450     300.7109    250.62331   -3020.7771   -2573.4924   -261.17917    12481.249 
   93500    308.65762    250.89783   -3029.9276   -2570.8228   -493.17694    12476.898 
   93550    299.96111    250.55876   -3018.6253   -2572.4559   -170.12057    12472.115 
   93600    296.22754    250.45593   -3015.1975   -2574.5815   -40.272075    12467.046 
   93650    315.39655    251.20357    -3040.119   -2570.9905   -698.93023    12461.726 
   93700    305.65249    250.93274   -3031.0913   -2576.4564   -434.55806    12455.881 
   93750    304.03114    250.81467   -3027.1557   -2574.9324   -292.11951    12449.592 
   93800    299.90325     250.7209   -3024.0299   -2577.9466   -35.660749    12442.953 
   93850    297.65258    250.65646   -3021.8821   -2579.1464    172.20807    12436.101 
   93900    294.14815     250.5992   -3019.9733   -2582.4502    246.56025    12429.161 
   93950    297.41079     250.7944   -3026.4799   -2584.1039    94.481119    12422.162 
   94000    309.77038    251.38849   -3046.2831   -2585.5231   -259.74874    12414.995 
   94050    294.64096    250.87417   -3029.1389   -2590.8828    236.04894    12407.551 
   94100    293.67366     250.8313   -3027.7099   -2590.8926     268.3757    12400.028 
   94150    298.10541    251.01008   -3033.6694   -2590.2602    148.84533    12392.469 
   94200    307.81002    251.57093   -3052.3644   -2594.5203   -150.32112    12384.794 
   94250    302.68285     251.4294   -3047.6466   -2597.4288    134.24027    12376.881 
   94300    292.17035    251.11663   -3037.2209   -2602.6397     566.2997    12368.874 
   94350    290.68216    251.14265   -3038.0884   -2605.7207    601.22135    12360.995 
   94400    301.82597    251.72593    -3057.531   -2608.5877    160.07808     12353.23 
   94450    299.69896    251.71731   -3057.2436   -2611.4641    193.73995    12345.409 
   94500    302.02838    251.93743   -3064.5812   -2615.3368    66.028415      12337.5 
   94550    296.32317    251.70917   -3056.9724   -2616.2142    260.36133    12329.476 
   94600    300.71089    251.91835   -3063.9448   -2616.6602     179.8494     12321.39 
   94650    289.85061    251.62366   -3054.1219    -2622.991    543.55139    12313.255 
   94700     302.0592    252.23453   -3074.4845   -2625.1943    130.14761      12305.2 
   94750    300.07067     252.2198   -3073.9933    -2627.661    190.99481    12297.072 
   94800    295.15546    252.06532   -3068.8441   -2629.8227    413.25138    12288.875 
   94850    287.55356    251.84975   -3061.6583   -2633.9442    721.50201    12280.742 
   94900    301.38759    252.35035   -3078.3449   -2630.0537    342.07293    12272.784 
   94950    295.87601    252.17438   -3072.4793   -2632.3862    445.60066    12264.873 
   95000    291.65453    252.08202   -3069.4006   -2635.5866    530.49313    12257.015 
   95050    292.55173    247.04899   -3068.2998   -2633.1512    613.20449    12249.285 
   95100    305.13559    247.57063   -3085.6877   -2631.8216    284.69618    12241.687 
   95150    312.04692    247.84561   -3094.8537   -2630.7076    133.25977    12234.055 
   95200    302.84964    247.62504   -3087.5013   -2637.0354    455.13768    12226.334 
   95250    320.75818    248.30949   -3110.3165    -2633.213   -70.760453    12218.625 
   95300    312.02308    248.08928    -3102.976   -2638.8653    188.25722    12210.734 
   95350    286.13582    247.12444   -3070.8146   -2645.2092    1171.9452     12202.79 
   95400    290.66076    247.21412   -3073.8039    -2641.468    1222.9249    12195.249 
   95450    296.41025    247.35963   -3078.6543   -2637.7665    1155.6026    12188.194 
   95500    294.01654    247.33373   -3077.7909   -2640.4636    1205.5778    12181.611 
   95550     298.5619    247.60666   -3086.8887   -2642.8005    1042.5328     12175.48 
   95600    287.54482    247.20999   -3073.6664   -2645.9653     1469.667    12169.768 
   95650    298.53258    247.72765   -3090.9215    -2646.877    1139.3474     12164.65 
   95700    298.54609     247.7234   -3090.7801   -2646.7154    1178.1424    12159.996 
   95750    295.01614    247.63486   -3087.8286   -2649.0144    1346.7143    12155.817 
   95800    305.85535    247.90206   -3096.7354   -2641.7987    1101.7961    12152.182 
   95850    304.75658    247.84057   -3094.6858   -2641.3835    1135.9225    12148.993 
   95900    307.55249    248.05051   -3101.6838   -2644.2228    1005.5958    12146.234 
   95950    288.11361     247.3348   -3077.8268   -2649.2796    1624.5036    12143.899 
   96000    293.70507    247.55874   -3085.2912   -2648.4272    1421.2844     12142.24 
   96050    292.81889    252.51929   -3083.9762   -2648.4303    1498.9131    12141.216 
   96100    293.32276    252.52722   -3084.2408   -2647.9454    1475.3352    12140.852 
   96150    308.37031    253.10929   -3103.6429   -2644.9654    920.13522     12141.12 
   96200    303.08684    253.00274   -3100.0913   -2649.2726    1116.1405    12141.797 
   96250     315.3592    253.38111   -3112.7038   -2643.6309    738.85439    12142.899 
   96300    316.20843     253.4901   -3116.3366   -2646.0005    639.45822    12144.275 
   96350    291.52171    252.56114   -3085.3715    -2651.755    1474.7402    12145.921 
   96400    298.26352    252.84993   -3094.9978   -2651.3534    1198.4965     12148.16 
   96450    293.32222    252.60818   -3086.9393   -2650.6447    1282.6286    12150.968 
   96500     287.7509    252.44485   -3081.4949   -2653.4872    1357.1194    12154.326 
   96550    305.36749    253.08065   -3102.6882   -2648.4772    738.15801    12158.246 
   96600    305.11889    253.11569   -3103.8563    -2650.015     697.4446    12162.482 
   96650    309.43721    253.19781   -3106.5938   -2646.3294    511.10752    12166.961 
   96700    300.65287     252.9263   -3097.5434    -2650.345    653.37077     12171.62 
   96750    293.87251    252.53014    -3084.338   -2647.2249    924.91468    12176.515 
   96800    294.76993    252.62715   -3087.5717   -2649.1237    918.33664    12181.782 
   96850    294.03082    252.72883   -3090.9609   -2653.6123    817.75717    12187.438 
   96900    292.71056      252.709   -3090.2999   -2654.9151    792.31164    12193.434 
   96950    294.19311    252.74221    -3091.407    -2653.817     664.7448    12199.744 
   97000      299.003    252.93867   -3097.9557   -2653.2114    416.27777    12206.309 
   97050    295.79636    247.78822   -3092.9408   -2652.9662    496.17564    12212.992 
   97100    304.36732    248.04799   -3101.5997   -2648.8764    153.53614    12219.788 
   97150    311.65115    248.29603   -3109.8676   -2646.3101   -196.70592    12226.544 
   97200    289.76275    247.49403   -3083.1343   -2652.1342    439.99787    12233.114 
   97250     274.2971    246.88323   -3062.7744   -2654.7783    934.90873    12239.797 
   97300    283.49377    247.21473   -3073.8242   -2652.1487    591.83057    12246.833 
   97350    288.05504    247.40392   -3080.1307   -2651.6706    377.02496    12254.098 
   97400    293.46944    247.55462   -3085.1541   -2648.6406    77.589305    12261.447 
   97450    298.50106     247.8114   -3093.7133   -2649.7156   -342.35788    12268.706 
   97500    299.70702    247.83093   -3094.3644    -2648.573   -486.97837    12275.659 
   97550    281.57304      247.127   -3070.8999   -2652.0814     85.08326    12282.252 
   97600    292.65445    247.53165   -3084.3882   -2649.0868   -278.98138    12288.707 
   97650    292.97897     247.5488   -3084.9599   -2649.1759   -403.55484      12294.9 
   97700    292.45104    247.42277   -3080.7588   -2645.7601   -475.31832    12300.731 
   97750    289.04834     247.2716     -3075.72   -2645.7825   -411.89885    12306.169 
   97800    289.63085    247.33583   -3077.8609   -2647.0569   -403.95084    12311.233 
   97850    292.38234    247.46088   -3082.0292   -2647.1326   -458.18084    12315.931 
   97900     289.8897    247.37838   -3079.2794   -2648.0905   -385.51425     12320.23 
   97950    277.18013    246.83543    -3061.181   -2648.8966   -34.384445    12324.195 
   98000    291.22271     247.3811   -3079.3701   -2646.1984   -527.97047     12327.95 
   98050    287.69892    247.12542   -3070.8475   -2642.9172   -331.32283    12331.311 
   98100    280.59779    246.71657   -3057.2191   -2639.8512   -52.927718    12334.352 
   98150    291.11614    247.09022   -3069.6739   -2636.6607   -464.59471    12337.183 
   98200    296.17922    247.27033   -3075.6777   -2635.1335   -677.83962     12339.62 
   98250    296.53961     247.2418   -3074.7266   -2633.6464   -657.37209     12341.54 
   98300    299.51177    247.28348   -3076.1159   -2630.6148   -694.34567    12342.937 
   98350    302.62237    247.37857   -3079.2857   -2629.1579   -757.95855    12343.793 
   98400     292.2837     246.9199   -3063.9967   -2629.2469   -290.50694    12344.098 
   98450    286.79408    246.71458   -3057.1526   -2630.5681    24.716816    12344.081 
   98500    299.43946    246.99796   -3066.5985    -2621.205    -236.5502    12343.887 
   98550    291.82781    246.78069   -3059.3563   -2625.2846    53.330109    12343.423 
   98600    289.41196    246.58276   -3052.7587   -2622.2804    249.46148    12342.823 
   98650    293.47632    246.66402   -3055.4675   -2618.9437    218.38029    12342.181 
   98700    295.25522    246.70272   -3056.7574   -2617.5877    179.21895    12341.505 
   98750    306.06869     247.0413   -3068.0432   -2612.7892   -160.03638    12340.752 
   98800    291.80593    246.47534    -3049.178   -2615.1387    370.00799    12339.786 
   98850    305.61307    246.89185   -3063.0618   -2608.4855   -5.9533783    12338.815 
   98900    307.19513    246.88883   -3062.9611   -2606.0316   -7.0216876    12337.709 
   98950    307.79945    246.91908   -3063.9694   -2606.1411    63.268447     12336.43 
   99000    302.53303    246.67081   -3055.6935   -2605.6985    279.07265    12335.034 
   99050    314.94633    242.07547   -3069.1823   -2600.7235   -83.620584     12333.57 
   99100    313.41567    242.02982   -3067.6606   -2601.4786   -115.00576    12331.909 
   99150    313.99434    242.03788   -3067.9295   -2600.8867   -135.06115    12329.979 
   99200    314.89122    241.90041   -3063.3469   -2594.9701   -1.6725875    12327.788 
   99250    308.72164    241.71827   -3057.2755   -2598.0755    359.73081    12325.406 
   99300    293.45185    241.14516   -3038.1719   -2601.6846    887.80579    12323.061 
   99350    308.34648    241.69113   -3056.3709   -2597.7289    357.13401     12320.97 
   99400    317.27311    241.87559   -3062.5196   -2590.5999    92.536281    12318.904 
   99450    319.34811    242.01095   -3067.0318   -2592.0257    63.474984    12316.691 
   99500    309.39445    241.68567    -3056.189   -2595.9883    386.98521    12314.341 
   99550    312.78556    241.72844   -3057.6147   -2592.3699    339.84243    12311.989 
   99600    310.50919    241.76668   -3058.8894   -2597.0305    375.26958    12309.651 
   99650    325.65937    242.30887   -3076.9624   -2592.5688   -8.2190395    12307.295 
   99700    317.92047    242.01528    -3067.176   -2594.2934    407.70255     12304.79 
   99750    304.52594    241.53668   -3051.2228   -2598.2635     895.5057     12302.32 
   99800    312.45253    241.88096   -3062.6988   -2597.9494    630.73897    12300.108 
   99850     299.0751    241.40585   -3046.8616   -2602.0101    1040.7111    12298.105 
   99900    318.13991    242.08175   -3069.3918   -2596.1828    362.13299     12296.41 
   99950    324.50475    242.25424   -3075.1414   -2592.4652    103.62354    12294.761 
  100000    311.69454    241.90511   -3063.5036   -2599.8816    564.54076    12293.021 
Loop time of 27.1046 on 1 procs for 100000 steps with 500 atoms

Performance: 318.765 ns/day, 0.075 hours/ns, 3689.405 timesteps/s
98.7% CPU use with 1 MPI tasks x 1 OpenMP threads

MPI task timing breakdown:
Section |  min time  |  avg time  |  max time  |%varavg| %total
---------------------------------------------------------------
Pair    | 21.955     | 21.955     | 21.955     |   0.0 | 81.00
Bond    | 0.0074821  | 0.0074821  | 0.0074821  |   0.0 |  0.03
Neigh   | 0.54261    | 0.54261    | 0.54261    |   0.0 |  2.00
Comm    | 0.78153    | 0.78153    | 0.78153    |   0.0 |  2.88
Output  | 0.018329   | 0.018329   | 0.018329   |   0.0 |  0.07
Modify  | 2.7492     | 2.7492     | 2.7492     |   0.0 | 10.14
Other   |            | 1.051      |            |       |  3.88

Nlocal:    500 ave 500 max 500 min
Histogram: 1 0 0 0 0 0 0 0 0 0
Nghost:    1563 ave 1563 max 1563 min
Histogram: 1 0 0 0 0 0 0 0 0 0
Neighs:    14375 ave 14375 max 14375 min
Histogram: 1 0 0 0 0 0 0 0 0 0

Total # of neighbors = 14375
Ave neighs/atom = 28.75
Ave special neighs/atom = 0
Neighbor list builds = 651
Dangerous builds = 0

write_data      ${walker}/final_restart_file
write_data      11/final_restart_file

quit
