LAMMPS (19 May 2017)
Processor partition = 11
  using 1 OpenMP thread(s) per MPI task
# gREM variables
variable        lambda world 1000 1005 1010 1015 1020 1025 1030 1035 1040 1045 1050 1055 1060 1065 1070 1075
variable        walker world 0 1 2 3 4 5 6 7 8 9 10 11 12 13 14 15
variable        replica world 1 3 7 2 4 6 5 8 11 14 0 10 12 13 9 15

variable        T0 equal 300.0
variable        press equal 0.0

units           real
atom_style      full
pair_style      lj/cut 5.0

# LJ particles
read_data       ${walker}/restart_file
read_data       11/restart_file
  orthogonal box = (0.960432 0.960432 0.960432) to (24.0396 24.0396 24.0396)
  1 by 1 by 1 MPI processor grid
  reading atoms ...
  500 atoms
  reading velocities ...
  500 velocities
  0 = max # of 1-2 neighbors
  0 = max # of 1-3 neighbors
  0 = max # of 1-4 neighbors
  1 = max # of special neighbors

#dump            dump all xyz 1000 ${walker}/dump.xyz

fix             fxnpt all npt temp ${T0} ${T0} 1000.0 iso ${press} ${press} 10000.0
fix             fxnpt all npt temp 300 ${T0} 1000.0 iso ${press} ${press} 10000.0
fix             fxnpt all npt temp 300 300 1000.0 iso ${press} ${press} 10000.0
fix             fxnpt all npt temp 300 300 1000.0 iso 0 ${press} 10000.0
fix             fxnpt all npt temp 300 300 1000.0 iso 0 0 10000.0
fix             fxgREM all grem ${lambda} -.03 -30000 fxnpt
fix             fxgREM all grem 1055 -.03 -30000 fxnpt
thermo_modify   press fxgREM_press

thermo          50
thermo_style    custom step temp f_fxgREM pe etotal press vol
WARNING: New thermo_style command, previous thermo_modify settings will be lost (../output.cpp:705)
timestep        1.0

temper/grem     100000 1000 ${lambda} fxgREM fxnpt 10294 98392 ${walker}
temper/grem     100000 1000 1055 fxgREM fxnpt 10294 98392 ${walker}
temper/grem     100000 1000 1055 fxgREM fxnpt 10294 98392 11
Neighbor list info ...
  update every 1 steps, delay 10 steps, check yes
  max neighbors/atom: 2000, page size: 100000
  master list distance cutoff = 7
  ghost atom cutoff = 7
  binsize = 3.5, bins = 7 7 7
  1 neighbor lists, perpetual/occasional/extra = 1 0 0
  (1) pair lj/cut, perpetual
      attributes: half, newton on
      pair build: half/bin/newton
      stencil: half/bin/3d/newton
      bin: standard
Per MPI rank memory allocation (min/avg/max) = 5.723 | 5.723 | 5.723 Mbytes
Step Temp f_fxgREM PotEng TotEng Press Volume 
       0    311.69454    246.90511   -3063.5036   -2599.8816    564.54076    12293.021 
      50    328.21873    247.43933   -3081.3108   -2593.1104    82.275413    12293.056 
     100     322.1849    247.28719   -3076.2396    -2597.014    211.98041    12292.996 
     150    313.37265    246.93474   -3064.4914   -2598.3733     541.4842    12292.885 
     200    311.51782     246.9277   -3064.2568   -2600.8976    642.20517    12292.893 
     250     292.9393    246.25751    -3041.917    -2606.192    1194.7488    12293.133 
     300    306.79084    246.78003   -3059.3344   -2603.0063     601.6894    12293.809 
     350    308.78515    246.90514   -3063.5045     -2604.21    462.84079    12294.684 
     400    295.60638    246.39567   -3046.5222   -2606.8301     974.2999     12295.69 
     450    295.88455    246.41878   -3047.2928   -2607.1869    912.92353    12297.058 
     500    305.72828    246.74533   -3058.1778   -2603.4301    481.17315    12298.753 
     550     327.0978    247.52245   -3084.0817   -2597.5486   -272.64216    12300.526 
     600    317.58036    247.23982   -3074.6605   -2602.2838     32.76964    12302.046 
     650    310.75574    247.06795   -3068.9317   -2606.7061    264.19957    12303.412 
     700    295.84462    246.48726   -3049.5754   -2609.5289    695.87826    12304.783 
     750    304.57174    246.85332   -3061.7775   -2608.7501     345.0272    12306.309 
     800    302.73579    246.75856   -3058.6188   -2608.3223    350.89165    12307.888 
     850    293.57692    246.53784   -3051.2615    -2614.588    569.44368    12309.508 
     900    315.17282    247.34815   -3078.2717    -2609.476   -127.08883    12311.241 
     950    304.76918    247.05431   -3068.4769   -2615.1558    172.78055    12312.799 
    1000    297.81728    246.84081   -3061.3603   -2618.3797    401.05531    12314.265 
    1050    315.79494    247.48256   -3082.7518   -2613.0308   -225.83753    12315.744 
    1100    305.87164    247.07108    -3069.036   -2614.0752    119.02503    12316.976 
    1150    298.22427     246.9135   -3063.7834   -2620.1974    250.32314    12318.094 
    1200    305.74905    247.27975   -3075.9918   -2621.2132   -171.71133    12319.156 
    1250    294.79358    246.93251   -3064.4171    -2625.934    99.690075    12319.988 
    1300    289.93329    246.86648    -3062.216   -2630.9622    241.29063     12320.71 
    1350    285.69272    246.75494    -3058.498   -2633.5517    339.79498    12321.418 
    1400    298.44368    247.18648   -3072.8827   -2628.9704   -137.77002    12322.122 
    1450    305.75716    247.42049   -3080.6829   -2625.8923   -425.53774    12322.613 
    1500    290.55482    246.81901   -3060.6338   -2628.4555    26.883702    12322.739 
    1550    286.67329    246.74465   -3058.1549   -2631.7501    85.744685      12322.7 
    1600    286.25168    246.81471   -3060.4902   -2634.7125    63.266732    12322.554 
    1650    295.20285    247.19128   -3073.0426   -2633.9507   -282.14658    12322.265 
    1700    294.23109    247.19114   -3073.0381   -2635.3917   -297.25234    12321.681 
    1750    294.46593    247.22581   -3074.1937   -2636.1979   -209.16824    12320.762 
    1800    283.68164    246.91197   -3063.7322   -2641.7773    125.64699    12319.601 
    1850    288.94729    247.16476   -3072.1585   -2642.3714   -101.71016    12318.323 
    1900     299.1773    247.54403    -3084.801   -2639.7974   -511.87477    12316.824 
    1950    297.54381    247.48658   -3082.8861   -2640.3123   -535.76732      12314.9 
    2000    291.31334    247.27405   -3075.8018   -2642.4953   -364.92511    12312.538 
    2050     297.2035    242.48976   -3082.9921   -2640.9244   -535.79924    12309.781 
    2100    303.39043    242.77477   -3092.4924   -2641.2221   -794.06506     12306.55 
    2150    315.71535    243.26849   -3108.9496   -2639.3469   -1188.8166    12302.686 
    2200    290.53433    242.33306   -3077.7685   -2645.6207   -369.81076    12298.053 
    2250    296.07203    242.60607   -3086.8688   -2646.4841   -546.23322     12292.97 
    2300    292.45023    242.49685   -3083.2283   -2648.2307   -339.27305    12287.437 
    2350    280.06719    242.16615   -3072.2051   -2655.6264    231.17286    12281.565 
    2400    288.09967    242.46036   -3082.0119   -2653.4855    66.662912    12275.635 
    2450    307.69625    243.10218   -3103.4058    -2645.731   -496.40714    12269.533 
    2500    292.49077     242.5497   -3084.9901   -2649.9323    39.046311    12263.049 
    2550    296.23115    242.72308   -3090.7692   -2650.1478    41.322828     12256.37 
    2600    285.76446    242.42526   -3080.8419   -2655.7889    428.79473    12249.564 
    2650    295.22415    242.73276   -3091.0919   -2651.9683    182.82491    12242.795 
    2700    297.84458    242.78587   -3092.8622   -2649.8409    140.90297    12235.972 
    2750    299.89967    242.87647   -3095.8824   -2649.8044    155.19873    12229.048 
    2800    299.00515    242.83689    -3094.563   -2649.8155     295.2573    12222.048 
    2850    281.35342    242.24565   -3074.8551   -2656.3632    808.24383    12215.065 
    2900    305.65326    243.06403   -3102.1343   -2647.4983    43.776337    12208.257 
    2950    298.19609    242.80816   -3093.6053   -2650.0612    430.44927    12201.371 
    3000     286.5612    242.49794   -3083.2646   -2657.0265    828.37311    12194.561 
    3050    299.33567     247.8832   -3096.1068   -2650.8676    419.28045    12188.005 
    3100    309.29013    248.19778   -3106.5927    -2646.547    213.53799    12181.525 
    3150    295.97322    247.84408   -3094.8028   -2654.5651     749.6046    12175.035 
    3200    294.64244    247.80053   -3093.3511   -2655.0928    867.57259    12168.775 
    3250    304.59639    248.13793   -3104.5978   -2651.5337    540.63384    12162.806 
    3300     301.5869    248.12023   -3104.0078   -2655.4202    713.13037    12156.995 
    3350    272.32636    247.13379   -3071.1263   -2666.0615     1696.789    12151.487 
    3400    293.53617    247.89214   -3096.4048    -2659.792    1055.3867    12146.638 
    3450    295.06747     247.8662   -3095.5399   -2656.6494    1021.6093    12142.277 
    3500    305.79335    248.14825   -3104.9418   -2650.0974    705.20413    12138.302 
    3550    324.45561    248.80997   -3126.9992    -2644.396    179.89409    12134.525 
    3600    305.36524    248.11548   -3103.8494   -2649.6417    909.08222    12130.756 
    3650    289.27241    247.55708   -3085.2359   -2654.9652    1522.8774    12127.302 
    3700    285.91367    247.45825   -3081.9416   -2656.6666    1689.4333    12124.498 
    3750     302.9782    248.00007   -3100.0023   -2649.3452    1155.7641    12122.419 
    3800    314.71866    248.44659   -3114.8864   -2646.7662    816.56609    12120.808 
    3850    293.42871     247.6366   -3087.8867   -2651.4337    1587.0272    12119.541 
    3900    292.57461    247.73402   -3091.1341   -2655.9515    1570.4933    12118.932 
    3950    301.07089    248.15976   -3105.3252   -2657.5051    1278.8152    12118.993 
    4000    293.90694    247.85455   -3095.1515   -2657.9872    1521.3387     12119.62 
    4050    307.13035    243.21263   -3107.0875   -2650.2544    1119.1502    12120.864 
    4100     299.0694    242.88098   -3096.0327   -2651.1896     1301.777     12122.59 
    4150    310.40974    243.24375   -3108.1249    -2646.414    898.82556    12124.798 
    4200    305.98557    243.06907   -3102.3023    -2647.172    928.11201    12127.348 
    4250    310.91129    243.31309   -3110.4363   -2647.9793    770.51785    12130.202 
    4300    305.82637    243.14531   -3104.8438   -2649.9502    938.77306    12133.314 
    4350    300.79521    242.97676   -3099.2252   -2651.8151    1038.0985    12136.764 
    4400    301.73112    242.96476   -3098.8252    -2650.023    900.73254    12140.596 
    4450    307.03503    243.21324   -3107.1081   -2650.4168    637.90001    12144.738 
    4500    296.07827    242.87079   -3095.6929   -2655.2989    954.32196    12149.086 
    4550    289.29638    242.58874   -3086.2913   -2655.9849    1133.6292    12153.779 
    4600    298.93223    242.94901   -3098.3003   -2653.6612    783.56463    12158.894 
    4650    297.42911    242.84315   -3094.7716   -2652.3683    746.73524     12164.29 
    4700    305.25857    243.20435   -3106.8117   -2652.7627    365.92479     12169.91 
    4750    301.08686    243.07225   -3102.4085   -2654.5646    469.24454    12175.593 
    4800    295.57067    242.82927   -3094.3089     -2654.67    630.64723    12181.374 
    4850    309.65326    243.30562   -3110.1873   -2649.6016      147.293    12187.301 
    4900    299.16565    242.89452   -3096.4841   -2651.4978    336.57792    12193.182 
    4950    308.11061    243.23363   -3107.7877   -2649.4966   -33.724735    12199.039 
    5000    301.16175    242.98684   -3099.5614   -2651.6061    197.51801     12204.76 
    5050     295.9705    247.79719   -3093.2398   -2653.0061    395.58513    12210.417 
    5100    280.49944    247.28035   -3076.0118   -2658.7901    865.84722    12216.155 
    5150     289.2014    247.55238   -3085.0794   -2654.9142    563.51841    12222.188 
    5200     294.3381    247.74515   -3091.5052   -2653.6995    291.67293    12228.392 
    5250    287.28201    247.44454   -3081.4847   -2654.1745    451.60167    12234.622 
    5300    277.67299    247.04876   -3068.2921   -2655.2745    648.87583    12240.965 
    5350    283.40295    247.28424   -3076.1414   -2654.6009    361.82383    12247.502 
    5400    294.56401    247.64025   -3088.0083   -2649.8667    -63.94134     12254.08 
    5450    292.53964    247.55643   -3085.2144   -2650.0838   -39.885945    12260.503 
    5500    297.98575    247.76156   -3092.0522   -2648.8209   -252.48624    12266.743 
    5550    286.16833    247.31829   -3077.2763   -2651.6226   -12.498721     12272.73 
    5600    300.58504    247.80691   -3093.5637   -2646.4662   -504.72618    12278.485 
    5650     284.9374    247.26282   -3075.4273   -2651.6045     27.59344    12283.869 
    5700    297.57765    247.70724   -3090.2415   -2647.6172   -387.88388    12289.068 
    5750    305.65939    247.96847    -3098.949   -2644.3039   -778.45772      12293.9 
    5800    288.63864    247.27845   -3075.9484   -2646.6203   -298.97475    12298.208 
    5850    299.84011    247.68069   -3089.3564    -2643.367   -585.54732    12302.139 
    5900    289.30132    247.27804   -3075.9346   -2645.6208   -178.81281    12305.632 
    5950    285.53041    247.15864   -3071.9546   -2647.2498   -71.148374    12308.859 
    6000    286.49916    247.10369   -3070.1232   -2643.9774   -111.31157    12311.885 
    6050     293.2029    247.29545    -3076.515    -2640.398   -328.45129    12314.686 
    6100    287.52864    246.93427   -3064.4757   -2636.7986   -123.26183    12317.187 
    6150    287.02408     247.0211     -3067.37   -2640.4434   -157.43612    12319.443 
    6200    286.42204    247.06896   -3068.9653   -2642.9343   -199.37046    12321.465 
    6250    290.73461    247.00176   -3066.7254   -2634.2797   -216.07635    12323.223 
    6300    288.42209    246.84201   -3061.4004   -2632.3944   -152.62487    12324.719 
    6350    304.18062    247.39009   -3079.6695   -2627.2239   -629.51225    12325.938 
    6400    303.92563    247.20934   -3073.6448   -2621.5784   -481.50772    12326.692 
    6450    293.69743    246.82975   -3060.9916   -2624.1389   -149.38918    12327.031 
    6500    303.09313    247.10764   -3070.2546   -2619.4265   -433.15361    12327.079 
    6550    299.03754    246.83666   -3061.2221   -2616.4264   -190.90668    12326.755 
    6600    295.75588    246.74556   -3058.1853   -2618.2709    12.670856    12326.149 
    6650    296.04759      246.728   -3057.5999   -2617.2515    118.01132     12325.39 
    6700    311.45654     247.2612   -3075.3734   -2612.1054   -264.49205    12324.498 
    6750    308.12805     247.0656   -3068.8534   -2610.5362   -88.915137    12323.316 
    6800    304.86678    246.95193   -3065.0645   -2611.5983    48.791916    12321.909 
    6850    299.64995    246.71483   -3057.1609   -2611.4543    194.13656    12320.373 
    6900    304.60114    246.94038   -3064.6794   -2611.6083   -17.298316    12318.751 
    6950    309.68721    247.12244    -3070.748   -2610.1117   -53.784313    12316.962 
    7000    301.49282    246.66646   -3055.5487    -2607.101     412.7701    12315.005 
    7050    298.07219     246.6338   -3054.4599   -2611.1001    590.09968    12313.081 
    7100    291.85646    246.35047   -3045.0156   -2610.9012    860.17198    12311.346 
    7150    305.85693    246.81337   -3060.4456   -2605.5066     486.7709    12309.896 
    7200    315.48993    247.17007   -3072.3358   -2603.0684    143.56655    12308.551 
    7250    315.13576    247.12471   -3070.8237   -2602.0831    132.88219    12307.132 
    7300     316.7836    247.13758   -3071.2527   -2600.0611    111.44349    12305.621 
    7350    312.32918    246.99751   -3066.5838   -2602.0178    328.00924    12304.008 
    7400    307.17131    246.82301   -3060.7669   -2603.8728    563.96936     12302.41 
    7450    313.77571    247.00771   -3066.9235   -2600.2059    423.25729    12300.927 
    7500    307.27711    246.73758   -3057.9194    -2600.868    658.93887    12299.531 
    7550    303.13751    246.61906   -3053.9688   -2603.0747    700.75613    12298.325 
    7600    313.57203    246.99315   -3066.4384   -2600.0238    373.84392    12297.304 
    7650    297.00155    246.45295   -3048.4318   -2606.6645    880.48839    12296.384 
    7700    300.69457      246.593   -3053.1001   -2605.8397    760.94668    12295.745 
    7750    311.30756    246.88897   -3062.9658   -2599.9194    412.23092    12295.348 
    7800    305.30885    246.68345   -3056.1149   -2601.9911    647.80773    12295.047 
    7850    296.13246    246.29112   -3043.0375   -2602.5629    1069.5387    12294.956 
    7900    314.30725    246.99668   -3066.5558   -2599.0476     406.8307     12295.24 
    7950    317.45697    247.05076   -3068.3588   -2596.1656    173.30511    12295.614 
    8000    314.91679     247.0093   -3066.9765   -2598.5617    237.42198    12295.906 
    8050    303.57504    246.71751   -3057.2503   -2605.7054    586.23324    12296.191 
    8100    306.22372    246.76628   -3058.8759   -2603.3913    514.66834    12296.621 
    8150    307.14556    246.80357   -3060.1189   -2603.2631    551.28279    12297.185 
    8200    294.36336    246.42144   -3047.3814   -2609.5382    928.64189    12297.917 
    8250    308.70874    246.94698   -3064.8993   -2605.7184    417.61315    12298.951 
    8300    294.33906    246.39965    -3046.655   -2608.8479    871.92622    12300.133 
    8350    299.23008    246.55015   -3051.6718   -2606.5897    717.44136    12301.587 
    8400    308.68106    246.98237   -3066.0791   -2606.9394    260.01303     12303.28 
    8450    311.10713    247.03973    -3067.991   -2605.2427    214.79018    12304.976 
    8500    313.73079    247.00354   -3066.7846   -2600.1338    192.07783    12306.625 
    8550    309.56231    246.86215   -3062.0716   -2601.6212    347.74362    12308.211 
    8600    296.90204    246.55609   -3051.8698   -2610.2505     668.7951    12309.839 
    8650    300.70449    246.71539   -3057.1796   -2609.9044    460.38932    12311.654 
    8700    298.88295    246.61661   -3053.8871   -2609.3213    500.93143    12313.581 
    8750    302.86052    246.83677   -3061.2257   -2610.7436    311.29934    12315.624 
    8800    301.70573     246.8093     -3060.31   -2611.5456    314.75127    12317.707 
    8850    306.23822    246.97544   -3065.8479   -2610.3418    171.16879    12319.786 
    8900    304.82851    246.93192   -3064.3972   -2610.9879    185.48204    12321.817 
    8950    310.09162    247.14229   -3071.4097   -2610.1719   -62.047758    12323.774 
    9000    316.01418    247.46986   -3082.3288   -2612.2816   -386.53767    12325.519 
    9050    302.55866    246.87413   -3062.4711    -2612.438     32.01209    12326.926 
    9100    292.22934    246.55184   -3051.7279   -2617.0589    394.13825    12328.185 
    9150    304.53244    246.94033   -3064.6777   -2611.7088    27.102679    12329.482 
    9200    314.92657    247.31218   -3077.0727   -2608.6433   -332.87161    12330.633 
    9250     307.7456     247.0169     -3067.23   -2609.4817   -106.63368     12331.46 
    9300    307.55621    247.09814    -3069.938   -2612.4714   -243.75474    12332.037 
    9350    302.05839    246.91049   -3063.6829   -2614.3939    -118.4231    12332.335 
    9400    300.04873    246.86273    -3062.091   -2615.7913   -106.70086      12332.4 
    9450    306.19402    247.14252   -3071.4175   -2615.9771   -324.42582    12332.226 
    9500    290.02031    246.50885    -3050.295   -2618.9117    182.68532    12331.736 
    9550    295.13366    246.86709   -3062.2364   -2623.2474   -25.595048    12331.125 
    9600    291.53073     246.8296   -3060.9865   -2627.3567    20.271098    12330.371 
    9650    288.03436    246.65989   -3055.3298   -2626.9005    134.47388    12329.477 
    9700    296.52062    247.00335   -3066.7783   -2625.7263   -166.77838    12328.485 
    9750     293.9602    246.91303   -3063.7678   -2626.5243   -59.647506    12327.271 
    9800    290.48162    246.85859   -3061.9529   -2629.8835    35.042505    12325.851 
    9850    299.78967    247.13884   -3071.2946   -2625.3802   -250.33811    12324.263 
    9900    289.36433    246.77271   -3059.0902   -2628.6827    47.137229    12322.408 
    9950    293.64673    246.93288   -3064.4293    -2627.652    -53.55387    12320.384 
   10000    292.90128    246.82482   -3060.8272   -2625.1588    105.40029    12318.189 
   10050    295.16404     251.9741   -3065.8033   -2626.7692    88.667945    12315.874 
   10100    299.68677     252.1956   -3073.1868   -2627.4254   -82.403242    12313.457 
   10150    299.42221    252.20639   -3073.5465   -2628.1787   -157.21912    12310.848 
   10200    300.66802    252.26623    -3075.541   -2628.3202   -208.12232     12307.99 
   10250    296.66973    252.20465   -3073.4882   -2632.2144   -75.755575     12304.87 
   10300    298.96159    252.33912   -3077.9707    -2633.288   -208.29897    12301.542 
   10350    306.98577    252.63482   -3087.8273   -2631.2093   -432.23894    12297.946 
   10400    306.61662    252.67244   -3089.0814   -2633.0124   -333.38842    12293.971 
   10450    304.80319     252.5432   -3084.7734   -2631.4018   -98.392119    12289.659 
   10500    296.19217    252.25398   -3075.1326   -2634.5692     214.2944    12285.145 
   10550    282.37775    251.81216   -3060.4053   -2640.3898    591.85835    12280.613 
   10600    298.66287    252.40281   -3080.0936   -2635.8552    102.29773    12276.203 
   10650    292.78171     252.2266   -3074.2199   -2638.7293    351.02573     12271.74 
   10700    290.05057    252.06881   -3068.9603   -2637.5321    524.22895    12267.306 
   10750    291.32045    252.07293   -3069.0977   -2635.7806    499.95435    12262.995 
   10800    291.87325    252.17588   -3072.5293     -2638.39    466.77089    12258.799 
   10850    300.36319    252.57808    -3085.936   -2639.1685    260.97751    12254.697 
   10900    290.25785    252.20434   -3073.4779   -2641.7413    720.48409    12250.616 
   10950    292.55784    252.26471   -3075.4904   -2640.3328    631.50393     12246.73 
   11000    310.56711       252.99   -3099.6667   -2637.7217   -21.928342    12242.988 
   11050    291.86782    247.34904   -3078.3012     -2644.17    525.84399    12239.153 
   11100    303.10196    247.75322   -3091.7741   -2640.9329    164.54185    12235.369 
   11150    301.30403    247.74574   -3091.5247   -2643.3578    215.94189     12231.54 
   11200    292.84411    247.46567    -3082.189   -2646.6056    533.46382     12227.65 
   11250     291.0896    247.42232   -3080.7441   -2647.7704    652.84224    12223.866 
   11300    290.72675    247.48062   -3082.6872   -2650.2532    673.81478    12220.283 
   11350     290.6732    247.59732   -3086.5774    -2654.223    668.74312    12216.888 
   11400    294.56216    247.77865   -3092.6218   -2654.4829    543.40051    12213.696 
   11450     295.2147    247.81474   -3093.8245    -2654.715    464.37571    12210.632 
   11500    303.05997    248.21727   -3107.2423   -2656.4636     28.96677    12207.635 
   11550    311.21459    248.47067   -3115.6891    -2652.781   -245.53879    12204.493 
   11600    287.16216    247.64283   -3088.0945   -2660.9625     572.6922    12201.103 
   11650    292.08792    247.94956   -3098.3187   -2663.8601    385.48297    12197.791 
   11700    289.96247    247.94578   -3098.1926   -2666.8954    382.05405    12194.536 
   11750    284.01969    247.81035   -3093.6783   -2671.2205    499.82288    12191.338 
   11800    290.97754     248.1218     -3104.06    -2671.253    251.99482    12188.219 
   11850     287.2842    248.05403   -3101.8011   -2674.4876     369.9006    12185.094 
   11900    286.76387    248.03653   -3101.2178   -2674.6782    361.34988     12182.01 
   11950    294.51586    248.38539   -3112.8465   -2674.7765    47.628359    12178.946 
   12000    288.44934    248.19865   -3106.6218   -2677.5752    302.04507    12175.772 
   12050    282.83032    248.03087   -3101.0291   -2680.3404    506.21833    12172.598 
   12100    299.51104    248.64968   -3121.6561   -2676.1561   -24.425283    12169.481 
   12150    292.72707    248.47508   -3115.8359   -2680.4266     172.3127    12166.221 
   12200    294.31328     248.6267     -3120.89   -2683.1213    121.03236    12162.871 
   12250    279.27885    248.02691   -3100.8971    -2685.491    615.84042    12159.456 
   12300    279.12978    248.11698   -3103.8995   -2688.7151    640.07324    12156.175 
   12350    278.44806    248.11972   -3103.9906   -2689.8202    636.86453    12153.097 
   12400    292.01427    248.67792   -3122.5974   -2688.2484    79.820169    12150.152 
   12450    285.11767    248.45419   -3115.1398   -2691.0489    292.02988    12147.126 
   12500    275.60139     248.1378   -3104.5933   -2694.6571    617.57577    12144.102 
   12550     282.1835    248.40337   -3113.4458   -2693.7192    377.01787    12141.233 
   12600    299.59964    248.97384   -3132.4614   -2686.8297   -96.658608     12138.39 
   12650    282.55924    248.31196   -3110.3987   -2690.1132    551.23464    12135.388 
   12700    288.78291    248.50339   -3116.7795   -2687.2369     455.8258    12132.463 
   12750    293.07829    248.81131   -3127.0435   -2691.1118    298.74552    12129.613 
   12800    279.58565    248.35287   -3111.7624   -2695.8999    641.24546    12126.802 
   12850    288.47181    248.69517   -3123.1724   -2694.0925    364.01721    12124.133 
   12900    291.74054    248.75275   -3125.0918   -2691.1498    382.74316    12121.515 
   12950    278.81254    248.24117    -3108.039   -2693.3264    917.60308    12118.987 
   13000    284.62138    248.48182   -3116.0606   -2692.7079    755.40261    12116.748 
   13050    289.66807    248.62067    -3120.689   -2689.8297    646.30575    12114.763 
   13100    290.60996    248.64504   -3121.5014   -2689.2411    619.10046    12112.973 
   13150    290.73318    248.60585   -3120.1951   -2687.7516    591.67935    12111.363 
   13200    273.59299     248.0492   -3101.6399   -2694.6911    1148.2199    12109.958 
   13250    286.29501     248.4885   -3116.2834   -2690.4412    850.32118    12108.955 
   13300    287.72495    248.47227   -3115.7423   -2687.7733    834.94416    12108.274 
   13350     289.3723    248.52506   -3117.5019   -2687.0826    737.49325    12107.892 
   13400    303.56813    248.99561   -3133.1869   -2681.6523    281.37581    12107.731 
   13450    292.56017    248.45843   -3115.2811     -2680.12    736.61885    12107.625 
   13500    291.19907    248.39601   -3113.2002   -2680.0637    869.11715    12107.748 
   13550    289.83575    248.32758   -3110.9194   -2679.8107    961.03288    12108.206 
   13600    287.74601    248.18296   -3106.0987   -2678.0984     1038.593    12109.038 
   13650    301.18925    248.65704   -3121.9013   -2673.9051    646.75018    12110.244 
   13700    297.51778    248.57995   -3119.3316   -2676.7965    748.37038    12111.687 
   13750    291.80526     248.3609   -3112.0298   -2677.9916    985.08609    12113.391 
   13800    288.73478    248.21939   -3107.3131    -2677.842    1174.7896    12115.477 
   13850    287.85699    248.11073   -3103.6911   -2675.5256    1243.0805    12118.069 
   13900    306.27757    248.75474   -3125.1581   -2669.5934    584.01989     12121.15 
   13950    292.51492    248.11549   -3103.8495   -2668.7557    1014.8651    12124.493 
   14000     295.9765    248.18831   -3106.2769   -2666.0343    948.51237    12128.222 
   14050    297.95358    248.22993   -3107.6643   -2664.4809    818.36508    12132.358 
   14100    308.74383    248.66235   -3122.0783   -2662.8452    445.81296    12136.789 
   14150    297.92822    248.22916   -3107.6386    -2664.493    868.71611    12141.393 
   14200    310.66375    248.65508   -3121.8361   -2659.7473    462.40703    12146.289 
   14250    308.95905    248.52177   -3117.3923   -2657.8391    543.74539    12151.344 
   14300    299.64687    248.07211   -3102.4036   -2656.7016    909.74817    12156.593 
   14350    292.20497    247.78193   -3092.7311   -2658.0984     1132.239    12162.202 
   14400     291.0767    247.73794   -3091.2647   -2658.3102    1132.0223    12168.304 
   14450    301.00932     248.0418   -3101.3932   -2653.6646    740.87197    12174.911 
   14500    281.43949    247.25926   -3075.3087   -2656.6888    1224.1195    12181.884 
   14550    298.29671    247.86663   -3095.5543   -2651.8605     474.6043    12189.363 
   14600    306.49529    248.23699   -3107.8996    -2652.011    49.275981     12197.03 
   14650    291.70065    247.55981   -3085.3269   -2651.4443    623.51482    12204.681 
   14700    294.31475    247.64392   -3088.1306   -2650.3597    603.41119    12212.548 
   14750    299.20192    247.72959   -3090.9862   -2645.9461    373.38219    12220.658 
   14800     304.4032     247.9204   -3097.3465   -2644.5699     129.6841    12228.881 
   14850    293.76273    247.53092   -3084.3639   -2647.4141    428.21047    12237.104 
   14900    285.56398    247.17491   -3072.4969   -2647.7421    657.06315    12245.479 
   14950     295.1774    247.48121   -3082.7068   -2643.6528    224.28191    12254.097 
   15000    302.25604    247.60953   -3086.9842   -2637.4013   -169.94507    12262.773 
   15050    309.15164    242.83717   -3094.5724   -2634.7328   -531.68898    12271.262 
   15100    308.43376    242.82712   -3094.2375   -2635.4656    -531.0085    12279.354 
   15150    286.90158    242.02849   -3067.6162   -2640.8719    185.86469    12287.086 
   15200    292.27299    242.20436   -3073.4788   -2638.7449   -17.930388    12294.758 
   15250    297.94929    242.43301   -3081.1004   -2637.9234   -294.26626    12302.306 
   15300    289.37191    242.07796   -3069.2653   -2638.8465   -15.804629    12309.624 
   15350    295.19795    242.19021   -3073.0071   -2633.9225   -145.08421    12316.794 
   15400    298.65429    242.30372   -3076.7907    -2632.565   -283.48759    12323.768 
   15450    295.67406    242.17003   -3072.3345   -2632.5417   -294.15579    12330.481 
   15500    293.26271    242.05728   -3068.5759   -2632.3699   -373.86478    12336.905 
   15550    295.39127    242.11539   -3070.5129   -2631.1408   -554.07899    12342.992 
   15600    294.45728    242.03965   -3067.9884   -2630.0055   -544.99017     12348.66 
   15650    306.66068    242.40949   -3080.3162   -2624.1817   -868.15915    12353.888 
   15700    303.03311    242.28876    -3076.292   -2625.5533   -741.31373    12358.531 
   15750    291.79321    241.82209   -3060.7365   -2626.7162    -402.0566    12362.643 
   15800    297.60165     241.9448   -3064.8268   -2622.1669   -599.01456    12366.354 
   15850     289.7137    241.71371   -3057.1238   -2626.1967   -350.60122    12369.608 
   15900     281.5034    241.43913   -3047.9709   -2629.2559   -175.21619    12372.525 
   15950    304.11417    242.27868    -3075.956   -2623.6092   -961.12867     12375.13 
   16000    299.61115    242.06343   -3068.7811   -2623.1322   -851.28143    12377.098 
   16050    299.23328    242.06986   -3068.9954   -2623.9086    -720.1515    12378.402 
   16100     291.0041    241.66823   -3055.6077   -2622.7611   -305.50692    12379.166 
   16150    290.03129     241.6616   -3055.3865    -2623.987   -322.09308    12379.541 
   16200    300.06412    242.02255   -3067.4182   -2621.0956   -750.67099    12379.523 
   16250    305.55782    242.12975   -3070.9915   -2616.4974   -848.71841    12378.935 
   16300     291.0373    241.62084    -3054.028   -2621.1321   -313.25892    12377.728 
   16350    307.98708    242.16924   -3072.3081   -2614.2007   -859.31423    12376.086 
   16400    300.22361    241.98737   -3066.2458   -2619.6859   -742.40989    12373.817 
   16450    295.65433    241.82313   -3060.7709   -2621.0075   -492.34414    12370.927 
   16500    297.38964    241.95644   -3065.2146   -2622.8701   -420.08959    12367.547 
   16550     299.7017    241.98031   -3066.0104   -2620.2268    -407.9295    12363.725 
   16600    296.36104    241.91926   -3063.9754   -2623.1608   -300.02983    12359.464 
   16650    295.60073    241.85237   -3061.7457    -2622.062   -218.87589     12354.81 
   16700    298.54514    241.90655   -3063.5516   -2619.4884    -342.4813    12349.818 
   16750    307.72951    242.29273   -3076.4243      -2618.7   -593.91134    12344.397 
   16800    295.64711    241.80372   -3060.1239   -2620.3712   -93.566543    12338.461 
   16850    301.79612     241.9665   -3065.5499    -2616.651   -158.11206    12332.205 
   16900    307.30695    242.11089   -3070.3631   -2613.2673   -128.19673    12325.629 
   16950    300.43176    241.85758   -3061.9194   -2615.0499    175.64925     12318.76 
   17000    306.09057    242.10708    -3070.236   -2614.9495    10.169062     12311.72 
   17050    312.10187    237.37477   -3079.1591   -2614.9312   -42.498621     12304.45 
   17100    306.14274    237.20993   -3073.6644   -2618.3003    227.79687    12296.903 
   17150    305.65321    237.17895   -3072.6317   -2617.9957    302.18433    12289.219 
   17200    309.90601    237.29757   -3076.5856   -2615.6239    278.61035    12281.435 
   17250    300.74542    236.86059   -3062.0196   -2614.6836    590.63962     12273.56 
   17300    317.65834    237.49505   -3083.1684   -2610.6757    54.655174    12265.679 
   17350    311.05533    237.29809   -3076.6029   -2613.9317    258.32625     12257.62 
   17400    313.91521    237.42209   -3080.7362   -2613.8111    294.65948     12249.42 
   17450    322.40408    237.71599   -3090.5329   -2610.9813    196.14289    12241.103 
   17500    315.72821    237.47798   -3082.5994   -2612.9776    478.55562    12232.646 
   17550    313.48461    237.43408   -3081.1359   -2614.8513    613.77753    12224.157 
   17600    306.37564    237.27487   -3075.8291   -2620.1186    881.70408    12215.765 
   17650    308.65738    237.42499   -3080.8329   -2621.7285    889.04863    12207.561 
   17700    317.11118     237.6616     -3088.72   -2617.0412    703.73429    12199.556 
   17750    319.01331    237.79309   -3093.1029   -2618.5947    684.27446    12191.691 
   17800    317.84647    237.82076   -3094.0255   -2621.2529    859.72545    12183.931 
   17850    317.25356    237.83196   -3094.3986    -2622.508    1008.2389     12176.36 
   17900    309.60565    237.62428    -3087.476    -2626.961    1235.4242    12169.088 
   17950    309.11205    237.65255   -3088.4184   -2628.6377    1334.1778    12162.206 
   18000    309.04937    237.61044   -3087.0146   -2627.3271    1377.7226    12155.804 
   18050    312.67347    237.70708    -3090.236   -2625.1579     1249.291    12149.894 
   18100    300.41658    237.42175   -3080.7251   -2633.8782    1568.4902    12144.437 
   18150     321.2311    238.24103   -3108.0344   -2630.2274     931.1991    12139.545 
   18200    317.03323    238.11279   -3103.7595   -2632.1966     1079.114    12134.968 
   18250    305.75507     237.6788   -3089.2933   -2634.5059    1405.0857    12130.738 
   18300    314.27017     238.1729   -3105.7635   -2638.3104    1072.9174    12127.007 
   18350    309.97742    238.02243   -3100.7477   -2639.6797    1277.0262    12123.678 
   18400    316.13927    238.28489   -3109.4962    -2639.263    1121.2875    12120.793 
   18450    311.80103    238.17279   -3105.7597   -2641.9793    1275.4805    12118.311 
   18500    303.83185    237.99042   -3099.6806   -2647.7538     1434.365    12116.314 
   18550    307.38481    238.22692    -3107.564   -2650.3524    1127.4672    12114.846 
   18600    308.64899    238.35758   -3111.9193   -2652.8273    951.79597    12113.788 
   18650    309.59609    238.35254   -3111.7514   -2651.2507    936.69984    12113.059 
   18700    304.00925    238.28267   -3109.4224   -2657.2316    1049.9587    12112.637 
   18750    308.84526    238.43628   -3114.5426   -2655.1587    908.07222    12112.563 
   18800    312.16057    238.55635   -3118.5449   -2654.2298    655.38127    12112.797 
   18850    315.67327    238.80772   -3126.9241   -2657.3841    417.10941    12113.189 
   18900    305.44662    238.53998   -3117.9994   -2663.6707     715.2056    12113.642 
   18950    293.82456      238.131   -3104.3668   -2667.3251    1135.3983     12114.31 
   19000    300.37448    238.33688   -3111.2293    -2664.445    940.17773    12115.381 
   19050    305.85468    238.46234   -3115.4114   -2660.4758    660.15979    12116.784 
   19100    306.55871    238.55805   -3118.6016   -2662.6187    610.37733     12118.37 
   19150     296.9671    238.26242   -3108.7473   -2667.0313     907.3789    12120.142 
   19200    298.96441    238.37881   -3112.6269     -2667.94     769.7341    12122.218 
   19250    294.45732    238.26977   -3108.9923   -2671.0093    853.55875    12124.569 
   19300    301.58668    238.50426   -3116.8088   -2668.2214    653.20533    12127.193 
   19350    293.75318    238.33317   -3111.1057   -2674.1702    803.67141     12130.04 
   19400    297.85114    238.37429   -3112.4765   -2669.4455    694.93522    12133.155 
   19450    303.73237    238.63926   -3121.3085   -2669.5296    410.00943    12136.492 
   19500    306.32083    238.60975   -3120.3249   -2664.6959    317.03568    12139.916 
   19550    300.34418    238.44221   -3114.7402    -2668.001    426.46263     12143.37 
   19600    318.36935    239.07179   -3135.7263    -2662.176   -212.26303    12146.849 
   19650    297.81902    238.31766   -3110.5886   -2667.6053    409.00194    12150.132 
   19700    288.26204    238.11602   -3103.8674   -2675.0995    708.03211    12153.462 
   19750    299.01757    238.47428   -3115.8092   -2671.0432    265.82443    12156.997 
   19800    291.51721      238.212   -3107.0667    -2673.457      347.054    12160.559 
   19850    297.02413    238.38583   -3112.8611   -2671.0602    131.14978    12164.154 
   19900     295.1648    238.34449   -3111.4831   -2672.4478    94.967259    12167.687 
   19950    296.05354    238.33305   -3111.1017   -2670.7445    112.13445    12171.121 
   20000    295.62255    238.28164    -3109.388   -2669.6718    178.39257    12174.482 
   20050    288.33701    238.04589   -3101.5297   -2672.6503    386.50106    12177.804 
   20100     301.8473    238.49411   -3116.4705   -2667.4955   -126.47367    12181.151 
   20150    304.72005    238.72662   -3124.2205   -2670.9725    -425.5799     12184.29 
   20200     295.7606    238.42574   -3114.1913   -2674.2698    -116.2898    12187.067 
   20250    292.68953    238.29428   -3109.8095    -2674.456    89.953159    12189.608 
   20300    286.30564    237.97732    -3099.244    -2673.386    313.73647     12192.06 
   20350    306.81797    238.69081   -3123.0269   -2666.6584   -367.50882     12194.46 
   20400    289.82644    238.11817    -3103.939   -2672.8441    33.947005    12196.563 
   20450    292.12803    238.20905   -3106.9685   -2672.4502   -7.8190441    12198.487 
   20500    290.84304    238.12782   -3104.2605   -2671.6536    50.334932    12200.267 
   20550    288.84892    238.04761   -3101.5871   -2671.9462    102.10572    12201.897 
   20600    288.95256    238.11494   -3103.8312   -2674.0362    88.115387    12203.421 
   20650    291.29084    238.16815    -3105.605    -2672.332     36.78673    12204.848 
   20700    305.05151    238.64872   -3121.6241   -2667.8831   -472.62208    12206.087 
   20750    311.54186    238.86794   -3128.9314   -2665.5365   -691.79956    12206.902 
   20800    291.02322    238.13815    -3104.605     -2671.73    43.563705    12207.219 
   20850      288.425     237.9608   -3098.6934    -2669.683      202.005    12207.348 
   20900      299.053    238.34447   -3111.4822   -2666.6635   -252.81963    12207.376 
   20950    295.20697    238.14306   -3104.7686   -2665.6706   -176.57521    12207.105 
   21000    300.50699    238.32836   -3110.9455   -2663.9641   -247.05518    12206.519 
   21050    294.85175    238.04209    -3101.403   -2662.8334    64.830718    12205.637 
   21100    285.71904    237.74617   -3091.5391   -2666.5537    385.29643    12204.595 
   21150     295.7511    238.17741   -3105.9136   -2666.0063    96.014695    12203.531 
   21200    299.23413    238.33211   -3111.0702   -2665.9821   -26.635498    12202.345 
   21250    304.44186    238.48387    -3116.129   -2663.2948   -132.12754    12200.941 
   21300     300.1927    238.28065   -3109.3551   -2662.8412    96.521795     12199.28 
   21350    294.67661    238.06768    -3102.256   -2663.9469    305.90492    12197.461 
   21400    289.05978    237.85035   -3095.0115    -2665.057    503.10303    12195.605 
   21450    299.26049    238.16312   -3105.4375   -2660.3102    231.84377    12193.787 
   21500     303.3708    238.19963   -3106.6543   -2655.4132    219.58757    12191.898 
   21550     303.0735    238.22977   -3107.6591   -2656.8603    299.96042    12189.924 
   21600    296.34062     237.9212   -3097.3733   -2656.5891    527.98282    12187.916 
   21650    315.16765    238.58073   -3119.3577   -2650.5697   -40.467652    12185.921 
   21700    307.23229    238.28439   -3109.4795   -2652.4948    246.20999    12183.746 
   21750      308.494    238.38317   -3112.7722   -2653.9108    188.41609    12181.448 
   21800    300.60099    237.99248   -3099.7493   -2652.6281    385.01373    12179.066 
   21850    285.85729    237.51764   -3083.9212   -2658.7301    901.15722    12176.699 
   21900    294.55736    237.85814   -3095.2713   -2657.1395    663.25943    12174.571 
   21950    307.80378    238.23499   -3107.8329   -2649.9981    332.47866    12172.601 
   22000    300.47898    238.02151   -3100.7169   -2653.7771    660.78967     12170.64 
   22050    303.93854    238.10689    -3103.563   -2651.4774     659.3882    12168.801 
   22100    294.10233    237.69034    -3089.678   -2652.2231    1035.3496    12167.139 
   22150    315.13602    238.32587   -3110.8623   -2642.1214    470.24802    12165.779 
   22200    314.85064    238.28947   -3109.6491   -2641.3327    562.04962    12164.503 
   22250    306.97597    237.99522   -3099.8407   -2643.2372    877.20212     12163.32 
   22300    298.68968    237.66039   -3088.6797   -2644.4014    1120.8538    12162.422 
   22350    295.83555    237.62035    -3087.345   -2647.3121    1169.5018    12161.935 
   22400    323.30408    238.48627   -3116.2089   -2635.3185    343.06971    12161.844 
   22450    314.41813    238.23589   -3107.8629   -2640.1898    649.55244    12161.803 
   22500    297.03577    237.64973   -3088.3242    -2646.506    1278.9718    12161.937 
   22550    311.70113    238.16173   -3105.3909   -2641.7591     836.3847    12162.516 
   22600    305.77372    237.90212   -3096.7373   -2641.9221    970.95057    12163.407 
   22650    324.16605    238.42599   -3114.1998   -2632.0274    503.37018    12164.597 
   22700    319.20869    238.25915   -3108.6384   -2633.8397    659.73137    12165.921 
   22750    329.27581    238.55389    -3118.463   -2628.6902    400.95516    12167.377 
   22800    299.44005    237.44026   -3081.3421   -2635.9477    1342.5402    12168.947 
   22850    312.95795    237.99655   -3099.8849   -2634.3837    937.22354    12170.993 
   22900    309.46409    237.86879   -3095.6262   -2635.3218    969.99702    12173.429 
   22950    307.59055    237.84396   -3094.7988   -2637.2811    966.16884    12176.204 
   23000    304.54618    237.74737   -3091.5789   -2638.5896    957.67212    12179.366 
   23050      313.573    243.04111   -3101.3704   -2634.9543    594.95213    12182.878 
   23100    307.43906    242.82489    -3094.163   -2636.8707    757.09673    12186.597 
   23150     314.5802    243.01505   -3100.5016   -2632.5874    539.93623    12190.564 
   23200    298.80558    242.38001   -3079.3336   -2634.8829    1039.7205    12194.744 
   23250    307.01196    242.68648   -3089.5494   -2632.8923     783.7859    12199.298 
   23300    309.29073    242.79561   -3093.1871   -2633.1406    542.13984    12204.175 
   23350    307.14053     242.8091   -3093.6366   -2636.7884    490.10369    12209.234 
   23400    295.51915     242.3765   -3079.2166   -2639.6543    926.85352    12214.461 
   23450    303.11716    242.59841   -3086.6136   -2635.7498    763.41434     12220.04 
   23500    297.18056    242.37594   -3079.1979   -2637.1643    805.74554    12225.949 
   23550    299.19946     242.4796   -3082.6534   -2637.6169    489.82273    12232.176 
   23600    303.57003    242.69123   -3089.7077   -2638.1703    111.06967    12238.569 
   23650    304.70188    242.71549   -3090.5164   -2637.2954   -76.146835    12244.914 
   23700    300.24509    242.51203   -3083.7344   -2637.1426    56.256909    12251.116 
   23750    309.59102    242.82777    -3094.259   -2633.7658   -184.03612    12257.206 
   23800    296.39309    242.30082   -3076.6939   -2635.8316    290.77558    12263.127 
   23850    296.03697    242.42754    -3080.918   -2640.5854    114.34606    12269.061 
   23900    301.90199    242.52235   -3084.0783    -2635.022   -203.95581     12274.93 
   23950    293.93496     242.2929     -3076.43    -2639.224   -76.233669    12280.602 
   24000    298.17521     242.3896   -3079.6534   -2636.1403   -199.61608    12286.093 
   24050    275.90865    241.63924   -3054.6414   -2644.2482     519.3327    12291.398 
   24100    283.40048     241.8629   -3062.0967     -2640.56     192.7349    12296.824 
   24150    298.21037    242.48604   -3082.8682   -2639.3028   -460.81595    12302.223 
   24200    295.92724    242.38316   -3079.4386   -2639.2693   -474.88618     12307.28 
   24250     304.3038    242.66924   -3088.9746   -2636.3458   -762.49883    12311.922 
   24300     302.1668    242.58154   -3086.0512    -2636.601   -729.71906     12316.03 
   24350    276.63956    241.85337   -3061.7789   -2650.2985  -0.91529481    12319.642 
   24400     286.0374    242.23515   -3074.5049   -2649.0459   -359.15965    12323.043 
   24450    293.50277    242.40794   -3080.2647   -2643.7016   -607.17258    12326.111 
   24500    284.96688    242.04664   -3068.2214   -2644.3547   -385.87888    12328.732 
   24550    306.18281     242.7724   -3092.4133   -2636.9896   -1098.2067    12330.928 
   24600    299.62208    242.58459   -3086.1531   -2640.4879   -901.84509    12332.412 
   24650    300.95712    242.62358   -3087.4525   -2639.8016   -834.08456    12333.207 
   24700    288.84504    242.23376   -3074.4585   -2644.8234   -395.02678    12333.385 
   24750    276.13708    241.78953   -3059.6512   -2648.9182    17.895325    12333.179 
   24800    294.77199    242.44739   -3081.5796   -2643.1286   -523.71453     12332.76 
   24850    296.31102    242.54428   -3084.8092    -2644.069   -613.01192    12331.897 
   24900    293.24101    242.36456   -3078.8185   -2642.6448   -530.25327    12330.508 
   24950    290.13896    242.31255   -3077.0849   -2645.5252   -508.09864    12328.654 
   25000    290.24029    242.33942   -3077.9808   -2646.2703   -571.74348    12326.324 
   25050    286.82919    247.24335   -3074.7784   -2648.1417   -464.43218    12323.509 
   25100    295.43392    247.57977   -3085.9924   -2646.5569    -693.9063    12320.241 
   25150     288.4811    247.35844   -3078.6146   -2649.5208   -513.64372    12316.432 
   25200    294.13242     247.4729   -3082.4301   -2644.9304   -574.42062    12312.129 
   25250    284.49415    247.08231   -3069.4103   -2646.2468   -87.718318     12307.35 
   25300    283.98355    247.10698   -3070.2327   -2647.8286    78.006759    12302.305 
   25350    288.28874    247.27362   -3075.7873   -2646.9797   -15.479956    12297.104 
   25400    298.97602    247.82369   -3094.1229   -2649.4187   -431.02177    12291.663 
   25450    287.52788    247.40345   -3080.1151   -2652.4392    6.1868258    12285.842 
   25500    292.50064    247.44273   -3081.4244   -2646.3519   -51.435144    12279.807 
   25550    313.26923    248.14629   -3104.8765   -2638.9123   -597.85464    12273.505 
   25600    292.92676     247.3348   -3077.8265   -2642.1202    225.11083    12266.768 
   25650    302.93512     247.7106   -3090.3534   -2639.7604   -5.9602497    12259.885 
   25700    303.17051    247.79753    -3093.251   -2642.3079   -47.778501    12252.808 
   25750    294.05919    247.49228   -3083.0758   -2645.6851     354.0702    12245.517 
   25800    284.12593     247.1468   -3071.5599   -2648.9441    824.83352    12238.231 
   25850    301.57177    247.73058   -3091.0194   -2642.4543     490.7638    12231.131 
   25900    291.32625    247.28154   -3076.0512   -2642.7255    847.30875    12224.155 
   25950     305.0865    247.82892   -3094.2974   -2640.5044    339.02631    12217.403 
   26000    304.39592    247.65064   -3088.3546   -2635.5888    461.51105    12210.681 
   26050    299.76172    242.48854   -3082.9514   -2637.0786    768.34605    12204.001 
   26100    308.67307     242.8069   -3093.5635   -2634.4357     683.2573     12197.49 
   26150    305.41387    242.68619   -3089.5397   -2635.2597    890.93621    12191.162 
   26200     319.3081    243.20935   -3106.9782   -2632.0316     453.8361    12185.075 
   26250    311.02212     242.8627   -3095.4233   -2632.8015    795.62318    12179.055 
   26300    290.94476    242.11983   -3070.6612   -2637.9029    1557.0314    12173.292 
   26350    303.04077    242.57516   -3085.8388   -2635.0886      1266.85    12168.121 
   26400    309.65423    242.75014   -3091.6714   -2631.0842    1203.0798     12163.44 
   26450    304.10071    242.51848   -3083.9494   -2631.6226    1475.3057    12159.243 
   26500    315.54955    242.87739   -3095.9129   -2626.5568    1146.5951    12155.617 
   26550    324.30331     243.2209   -3107.3632   -2624.9866    783.46229    12152.413 
   26600    319.82342    242.97153    -3099.051   -2623.3379    990.64772    12149.469 
   26650    311.64501    242.66693   -3088.8978   -2625.3495    1338.4832    12146.872 
   26700    319.10883    242.85887   -3095.2958   -2620.6456    1127.1053    12144.773 
   26750    323.26546    243.08067   -3102.6889   -2621.8561     931.7091    12143.096 
   26800    315.03886    242.70136   -3090.0455    -2621.449    1211.8828    12141.763 
   26850     310.9984    242.59073   -3086.3576    -2623.771    1368.3011    12140.891 
   26900    313.99551    242.68935    -3089.645   -2622.6004     1329.108    12140.557 
   26950    309.43085    242.48612   -3082.8706   -2622.6157    1509.9745    12140.786 
   27000    323.15176    243.10359   -3103.4531   -2622.7893    1037.1347    12141.602 
   27050    296.04228    242.06182   -3068.7273   -2628.3868    1919.6378    12142.888 
   27100    310.66302    242.62132   -3087.3774   -2625.2897    1387.6485    12144.933 
   27150    303.72646    242.40103   -3080.0343   -2628.2642    1522.1683     12147.62 
   27200    309.63513    242.55915   -3085.3051   -2624.7463    1380.0357    12150.957 
   27250    313.34733    242.74682   -3091.5606   -2625.4802    1097.7244    12154.885 
   27300    319.41773    242.94422   -3098.1408   -2623.0311    808.58847     12159.24 
   27350     316.8992    242.90664   -3096.8879   -2625.5244     865.1523    12163.889 
   27400    318.69574    242.91498   -3097.1661   -2623.1304    804.47519    12168.856 
   27450     311.1206    242.72339   -3090.7796   -2628.0113     945.6716    12174.115 
   27500    306.50478    242.57521   -3085.8403   -2629.9376    1067.2147    12179.734 
   27550    308.13176    242.69073    -3089.691   -2631.3683    947.63077    12185.782 
   27600    306.45307    242.76058   -3092.0195   -2636.1938    862.38696     12192.21 
   27650    313.94694    242.98752   -3099.5839   -2632.6116    618.87784     12198.96 
   27700    314.35287    243.05383   -3101.7943   -2634.2182    582.33778    12205.911 
   27750    302.58061    242.69905   -3089.9685   -2639.9028    802.54407    12213.062 
   27800     306.5565    242.85962   -3095.3207   -2639.3411    441.73287    12220.487 
   27850    313.14548      243.117   -3103.9001   -2638.1199    9.8311256    12228.009 
   27900    290.49153    242.29249   -3076.4163   -2644.3321    664.27371     12235.47 
   27950    289.94203    242.35434   -3078.4779   -2647.2111    477.53007    12243.128 
   28000    302.79833    242.87501   -3095.8337   -2645.4441   -235.92415     12250.89 
   28050     295.9061     247.6937   -3089.7902   -2649.6523   -182.84587     12258.44 
   28100    298.78288    247.91453   -3097.1511   -2652.7342   -385.36821    12265.752 
   28150    293.00144     247.6804   -3089.3467   -2653.5292   -276.73779    12272.762 
   28200    281.62895    247.36357   -3078.7856   -2659.8839    32.727187    12279.498 
   28250    278.75293     247.1927   -3073.0898    -2658.466    89.625503    12286.128 
   28300     288.5183    247.49435   -3083.1451    -2653.996   -308.73922    12292.668 
   28350    287.33514    247.55133   -3085.0444   -2657.6552   -343.74259    12298.923 
   28400    285.49897    247.42267   -3080.7557   -2656.0976   -342.18707    12304.876 
   28450    299.61116    248.02048   -3100.6828   -2655.0339   -942.96404    12310.461 
   28500    288.01027    247.67255   -3089.0851   -2660.6916   -629.34351    12315.446 
   28550    288.47188    247.79012   -3093.0042   -2663.9241    -647.8015    12319.926 
   28600    280.47592    247.45903   -3081.9675   -2664.7808   -441.41874    12323.932 
   28650    294.50603     247.9357   -3097.8566   -2659.8012    -957.1203    12327.508 
   28700    286.79332    247.58579    -3086.193   -2659.6097   -708.60683    12330.462 
   28750    267.63852    246.97441   -3065.8136   -2667.7216   -102.88854      12332.9 
   28800    271.62411    247.03495   -3067.8315   -2663.8112   -274.32859    12335.107 
   28850    280.78622    247.29281   -3076.4271   -2658.7789   -657.50397    12337.005 
   28900    272.53604    247.06081   -3068.6937    -2663.317   -495.92923    12338.426 
   28950    273.74104    247.15303   -3071.7678   -2664.5987   -582.98088    12339.408 
   29000    280.33865    247.45923   -3081.9742   -2664.9917   -833.89857    12339.919 
   29050    300.56421    243.03349   -3101.1164   -2654.0499   -1363.3735    12339.783 
   29100     280.4648    242.38078   -3079.3594   -2662.1892   -743.17936    12338.773 
   29150    277.97383    242.17308    -3072.436    -2658.971   -655.04838    12337.143 
   29200    288.39544    242.59354   -3086.4513    -2657.485   -1009.6656    12334.954 
   29250    289.34295    242.60028    -3086.676   -2656.3003   -954.45146    12332.053 
   29300    292.76717    242.73914   -3091.3048   -2655.8358   -999.04736    12328.428 
   29350    279.72958    242.24033   -3074.6777   -2658.6011   -469.58221    12324.092 
   29400    273.42047    241.97835   -3065.9452   -2659.2529    -221.5971      12319.3 
   29450    289.97641    242.48963   -3082.9876   -2651.6696   -656.90918    12314.161 
   29500    292.13477    242.52026   -3084.0085   -2649.4802   -565.25971    12308.498 
   29550    281.15207    242.15552   -3071.8506   -2653.6583   -112.88969    12302.363 
   29600    290.20154    242.49575   -3083.1915   -2651.5387   -344.84231     12295.93 
   29650    294.70353    242.66762   -3088.9208   -2650.5716   -438.33427    12289.139 
   29700    299.19713    242.87533   -3095.8442   -2650.8111   -451.06516    12281.913 
   29750    297.80742    242.85605   -3095.2016   -2652.2356   -320.33379    12274.255 
   29800    282.51538    242.20969   -3073.6562    -2653.436    275.27979    12266.269 
   29850     287.2305     242.3231   -3077.4367   -2650.2031    227.24929    12258.199 
   29900    309.68537    243.11273   -3103.7578   -2643.1243    -414.1134    12250.035 
   29950    298.17013    242.62315   -3087.4385    -2643.933    89.672304    12241.516 
   30000    291.63313    242.45669   -3081.8897   -2648.1075    414.95252    12232.838 
   30050     298.7157    247.71524   -3090.5082   -2646.1912    333.63398    12224.189 
   30100    301.49027     247.7651   -3092.1701   -2643.7261    377.35357    12215.558 
   30150    301.73553     247.7589   -3091.9634   -2643.1547    415.17886    12206.961 
   30200    295.96205    247.54044   -3084.6814   -2644.4603    680.57228    12198.435 
   30250    294.13686    247.48757   -3082.9189   -2645.4126    902.88686    12190.112 
   30300    288.63914    247.25559   -3075.1863   -2645.8575    1235.0805    12182.128 
   30350    297.80012    247.62202   -3087.4008   -2644.4456    1040.2377    12174.609 
   30400    296.26847    247.60772   -3086.9241   -2646.2472    1105.2241    12167.516 
   30450    299.11654    247.55401   -3085.1335   -2640.2203    1119.9209    12160.864 
   30500    305.38251    247.80545   -3093.5151   -2639.2817    1019.4288    12154.631 
   30550    302.84658    247.62778   -3087.5925   -2637.1312    1200.0731    12148.805 
   30600     314.0085    248.09945   -3103.3151   -2636.2513    900.96594    12143.424 
   30650    311.58731    248.02216   -3100.7387   -2637.2762    1039.4272     12138.39 
   30700    305.36473    247.72053   -3090.6843   -2636.4774    1415.7515    12133.753 
   30750     295.8312    247.43222    -3081.074   -2641.0475     1807.342     12129.72 
   30800    305.44594    247.76263   -3092.0875   -2637.7598    1497.7068    12126.471 
   30850    314.33075    248.05276   -3101.7586   -2634.2154    1214.8559    12123.862 
   30900    307.74714    247.84227   -3094.7422   -2636.9917    1454.2669    12121.782 
   30950     309.2121    247.82808   -3094.2695   -2634.3399    1445.0367    12120.305 
   31000    312.92795     248.0648   -3102.1599   -2636.7032    1226.4024    12119.423 
   31050    302.95864    247.68484   -3089.4945   -2638.8665     1543.401    12119.069 
   31100    300.70799    247.51901   -3083.9668   -2636.6865     1710.779    12119.391 
   31150    302.20521    247.63749   -3087.9165   -2638.4091    1642.4568    12120.469 
   31200    302.99636    247.67959   -3089.3195   -2638.6354    1586.9647    12122.279 
   31250    315.19249    248.21406   -3107.1352   -2638.3103      1066.82    12124.769 
   31300    311.86547     248.0838   -3102.7933   -2638.9171    1112.8648    12127.705 
   31350    313.30359    248.02138   -3100.7125   -2634.6972    1169.0262     12131.09 
   31400    314.00276    248.10754   -3103.5846   -2636.5292    1142.3823    12134.959 
   31450     321.8996      248.399      -3113.3   -2634.4987    821.92203    12139.269 
   31500    318.07142    248.28471   -3109.4903   -2636.3831    810.97829    12143.885 
   31550     303.0609     247.8672   -3095.5732   -2644.7931    1099.1381     12148.81 
   31600    309.62926        248.1   -3103.3334   -2642.7834    820.55344    12154.164 
   31650    314.09685    248.22132   -3107.3773   -2640.1821    612.30403    12159.814 
   31700    305.11717    247.92734    -3097.578   -2643.7394    865.84391    12165.665 
   31750    300.29122    247.76772   -3092.2574    -2645.597    960.24982    12171.836 
   31800     292.3587    247.41043   -3080.3476   -2645.4862    1174.9348    12178.391 
   31850    292.30432    247.46829   -3082.2762   -2647.4957     1066.944    12185.422 
   31900    297.52545    247.74568   -3091.5227   -2648.9762    650.66793    12192.891 
   31950    303.27851     247.8874   -3096.2465   -2645.1427    326.65161    12200.579 
   32000    301.11878    247.77696   -3092.5655   -2644.6741    309.68826    12208.321 
   32050    294.90932    242.55634   -3085.2114   -2646.5561    381.41273    12216.097 
   32100    309.23444    243.11973   -3103.9909   -2644.0282   -174.33197    12223.884 
   32150    299.86929    242.78832   -3092.9439   -2646.9111    170.36413    12231.464 
   32200    287.27147      242.424   -3080.7999   -2653.5054    503.74219    12238.988 
   32250    302.28393    242.97484   -3099.1613   -2649.5369   -99.074169    12246.587 
   32300    292.21896    242.54855   -3084.9515    -2650.298    78.219909     12254.02 
   32350    293.55162    242.55229   -3085.0763   -2648.4405   -70.771759    12261.316 
   32400    297.89184    242.70607   -3090.2023   -2647.1107   -324.82603    12268.414 
   32450    294.22963    242.53094   -3084.3647   -2646.7205   -341.07064     12275.18 
   32500    291.32953    242.43751   -3081.2502   -2647.9196   -401.66981    12281.595 
   32550     301.0904     242.8269     -3094.23   -2646.3809   -782.40428    12287.602 
   32600    288.84794    242.40634   -3080.2114    -2650.572   -426.54023    12293.069 
   32650    289.17637    242.39858   -3079.9527   -2649.8248   -397.45522    12298.119 
   32700    301.48202    242.88866   -3096.2886   -2647.8569   -828.70703    12302.759 
   32750    296.38885    242.69131   -3089.7104   -2648.8545   -722.49178    12306.808 
   32800    280.71122    242.21077   -3073.6924   -2656.1557   -323.91724    12310.311 
   32850    291.15614    242.54338   -3084.7793   -2651.7066   -700.66958    12313.421 
   32900    294.05674     242.6891   -3089.6365   -2652.2494   -891.66123    12315.988 
   32950    298.58185    242.79041   -3093.0137   -2648.8958   -1048.4629    12317.885 
   33000    294.61386    242.63629   -3087.8763   -2649.6605    -923.1696    12319.045 
   33050    303.62615    237.96002   -3098.6673   -2647.0464   -1175.6622    12319.473 
   33100    286.98312    237.42801   -3080.9338   -2654.0682   -710.63314    12319.107 
   33150    291.06842    237.49752   -3083.2506   -2650.3084   -706.44584    12318.107 
   33200    287.98188    237.43827   -3081.2756   -2652.9244   -548.03639    12316.548 
   33250    295.45949    237.67538   -3089.1792   -2649.7056   -725.18518    12314.483 
   33300    296.62333    237.68863   -3089.6211   -2648.4164   -719.17758     12311.82 
   33350    286.77859    237.33151   -3077.7169   -2651.1554   -402.12643    12308.586 
   33400    297.73865    237.72699   -3090.8997   -2648.0361   -775.48277    12304.897 
   33450    289.52463    237.47102   -3082.3673   -2651.7214   -556.98257    12300.641 
   33500    298.26269    237.68575   -3089.5249   -2645.8818   -672.23827    12295.851 
   33550    305.19813    237.95378   -3098.4595   -2644.5004   -830.10776    12290.491 
   33600     301.0681    237.77432   -3092.4774   -2644.6614   -567.97166    12284.493 
   33650     287.7103    237.32178   -3077.3927   -2649.4454   -41.469852    12277.999 
   33700    295.48288    237.76179   -3092.0596   -2652.5512   -240.09498    12271.246 
   33750    296.20684    237.70068   -3090.0228   -2649.4376   -142.04228    12264.182 
   33800    281.62971     237.1734   -3072.4468    -2653.544    397.01987    12256.875 
   33850    302.92039    237.84775   -3094.9249   -2644.3538   -138.48909    12249.526 
   33900    310.18651    238.01009   -3100.3363   -2638.9574   -196.51493    12241.934 
   33950    292.98323    237.41405   -3080.4682   -2644.6779    469.55445    12234.086 
   34000    305.90185    237.82996   -3094.3321   -2639.3262    147.40815    12226.238 
   34050    302.79137    237.71407   -3090.4689   -2640.0897    321.19634    12218.313 
   34100    311.43104    237.93053   -3097.6843   -2634.4542    275.10793    12210.347 
   34150    305.38039    237.68714   -3089.5713   -2635.3411     610.8739    12202.363 
   34200    314.31922     237.9673   -3098.9102   -2631.3841    443.29007    12194.474 
   34250    312.39477    237.79892   -3093.2974   -2628.6339    665.45204     12186.66 
   34300    314.93213    237.89055   -3096.3517    -2627.914    756.34324    12178.993 
   34350     312.2681    237.76344   -3092.1147   -2627.6396    1044.4233    12171.552 
   34400    309.21937    237.63601    -3087.867   -2627.9266    1273.3865     12164.49 
   34450    314.47169    237.72021   -3090.6735   -2622.9207    1327.3469    12157.916 
   34500    317.22286    237.74593   -3091.5311   -2619.6861    1387.9466    12151.869 
   34550    314.39884    237.51093   -3083.6976   -2616.0531    1539.5716    12146.393 
   34600    341.29294    238.38265   -3112.7551   -2605.1077     709.7161    12141.492 
   34650    334.85457    238.12833   -3104.2777   -2606.2069    977.06073    12136.837 
   34700    327.41137    237.95784   -3098.5947   -2611.5951    1402.2881    12132.487 
   34750    306.57214    237.19403   -3073.1344   -2617.1316    2204.2121    12128.744 
   34800    323.81542    237.78325   -3092.7749    -2611.124    1679.4442    12125.909 
   34850    330.58971    238.00768    -3100.256   -2608.5289    1473.3549    12123.798 
   34900    319.27007    237.57067   -3085.6889   -2610.7988    1924.5097    12122.308 
   34950     325.0811     237.7327   -3091.0899   -2607.5564    1711.6304    12121.627 
   35000     336.8315    238.20075   -3106.6917   -2605.6803    1260.4695    12121.654 
   35050    318.38103    232.52616   -3084.2053   -2610.6376    1856.7703    12122.194 
   35100    331.15466    232.95753   -3098.5842   -2606.0168    1484.8321    12123.447 
   35150     331.0382    233.02313   -3100.7708   -2608.3766    1347.8037    12125.316 
   35200    326.41038    232.79641   -3093.2136   -2607.7029    1474.2172    12127.706 
   35250    322.17008    232.76166   -3092.0555   -2612.8519    1486.7391    12130.672 
   35300    345.85031    233.59813   -3119.9377   -2605.5116    697.37823    12134.168 
   35350    322.72592    232.81505   -3093.8348   -2613.8045    1428.9589    12137.906 
   35400    309.91703    232.38177   -3079.3922   -2618.4141    1791.8725    12142.198 
   35450      331.546    233.16383    -3105.461   -2612.3114    895.95297     12147.18 
   35500    317.62995    232.62856   -3087.6185    -2615.168    1223.1049    12152.502 
   35550    318.48876    232.76222   -3092.0738   -2618.3459    1230.5757    12158.242 
   35600    312.81959    232.58513   -3086.1709   -2620.8755    1251.3505    12164.462 
   35650    331.10247    233.23614   -3107.8712   -2615.3813    510.35482    12171.107 
   35700    314.53034    232.71036   -3090.3455   -2622.5055    929.62138    12177.893 
   35750    300.26356    232.29663   -3076.5545   -2629.9352    1236.1965    12184.963 
   35800    320.93761    233.14949   -3104.9832   -2627.6128    404.33548    12192.441 
   35850    312.40656    232.82997   -3094.3323   -2629.6513    474.55337    12200.005 
   35900    318.32233    233.10858   -3103.6195   -2630.1391    172.77891    12207.582 
   35950    301.99926    232.52502   -3084.1674   -2634.9664    568.94378    12215.103 
   36000     320.2561    233.23071   -3107.6904   -2631.3338   -174.73453    12222.665 
   36050    319.00137    228.22453   -3107.4843   -2632.9939   -299.64035    12229.975 
   36100    305.91814    227.85838   -3095.2792   -2640.2492   -15.267882    12236.915 
   36150    294.92593    227.56793   -3085.5978   -2646.9178    237.83597    12243.629 
   36200    304.27077    227.86264   -3095.4215   -2642.8418   -143.42409    12250.233 
   36250    321.23335    228.44191   -3114.7302   -2636.9199   -781.44147    12256.539 
   36300    306.52902    227.94574   -3098.1914   -2642.2527   -449.75173    12262.242 
   36350    303.98934    227.96301    -3098.767   -2646.6059   -440.06377    12267.443 
   36400    302.56085    227.96011   -3098.6702   -2648.6339   -362.47348    12272.188 
   36450    302.02885    227.87112    -3095.704    -2646.459   -339.71294     12276.52 
   36500    301.43517    227.89236    -3096.412     -2648.05   -452.24872    12280.431 
   36550    290.70792    227.42165   -3080.7216   -2648.3156   -289.47937    12283.898 
   36600    313.65497    228.35434   -3111.8112   -2645.2732   -1063.1075    12286.915 
   36650     295.1709    227.72823    -3090.941   -2651.8967   -557.70986     12289.21 
   36700     307.9655    228.18485   -3106.1617   -2648.0864   -1014.3316     12290.92 
   36750    313.99472    228.39391   -3113.1304    -2646.087   -1271.8785    12291.859 
   36800     293.6525     227.7126   -3090.4201   -2653.6343    -608.3081    12291.915 
   36850    297.35268    227.93931   -3097.9771   -2655.6875   -578.13585    12291.367 
   36900    293.40005    227.77906   -3092.6353    -2656.225   -371.95472    12290.305 
   36950    303.71273    228.16053   -3105.3511   -2653.6014   -699.45627    12288.783 
   37000    292.17032    227.82058   -3094.0193   -2659.4381   -494.82744    12286.677 
   37050    282.80075    227.46154   -3082.0515   -2661.4068    -239.7775    12284.075 
   37100    293.03171    227.83848   -3094.6161   -2658.7537   -584.90454    12281.097 
   37150    292.86611    227.82716   -3094.2385   -2658.6224   -524.56708    12277.601 
   37200    296.17489     227.8964   -3096.5466   -2656.0089   -550.60422    12273.595 
   37250    304.58429    228.24562   -3108.1873   -2655.1413   -840.77941    12269.059 
   37300    290.70321    227.64202   -3088.0672   -2655.6683   -337.43899    12263.877 
   37350    293.58393    227.77052   -3092.3505   -2655.6667   -336.48512    12258.243 
   37400    305.22724     228.1797     -3105.99   -2651.9876   -663.08685    12252.209 
   37450    304.42975    228.15331   -3105.1105   -2652.2943   -550.71437    12245.606 
   37500    291.12697    227.85538   -3095.1792   -2662.1499   -53.789005    12238.495 
   37550    301.06687    228.22237   -3107.4125   -2659.5983   -308.90965    12231.107 
   37600    304.05249    228.34629   -3111.5429   -2659.2878   -352.50948    12223.357 
   37650    308.31691    228.51919   -3117.3063   -2658.7083   -380.83696    12215.187 
   37700    303.54945    228.46452    -3115.484   -2663.9771   -176.17043    12206.604 
   37750    300.06076    228.26875   -3108.9583   -2662.6407    68.711908      12197.7 
   37800    302.75405    228.56176   -3118.7255   -2668.4017    39.369009    12188.605 
   37850    306.59997    228.53242   -3117.7475   -2661.7033     45.74925    12179.337 
   37900    307.04836     228.5541   -3118.4701   -2661.7589     155.4182    12169.875 
   37950    298.75045    228.25083   -3108.3611   -2663.9925    549.82853    12160.312 
   38000    309.71359    228.64575   -3121.5251   -2660.8496    388.31547    12150.785 
   38050    299.25606    228.33727   -3111.2423   -2666.1216    702.32521    12141.295 
   38100    302.02298    228.45053   -3115.0176   -2665.7813    627.46713    12131.948 
   38150    293.96963     228.1293     -3104.31   -2667.0524    1003.6198     12122.75 
   38200    293.03135    228.24041   -3108.0136   -2672.1516    1053.2328    12113.874 
   38250    310.44752    228.74812   -3124.9374   -2663.1703    635.17405    12105.334 
   38300    317.66122    228.95595   -3131.8649   -2659.3679    473.52546     12096.93 
   38350    311.88399    228.91448   -3130.4826   -2666.5788    636.48993    12088.587 
   38400    303.07693    228.62862   -3120.9541   -2670.1502    1006.8411    12080.391 
   38450    311.87076    228.99062   -3133.0207   -2669.1366    814.53065    12072.491 
   38500     308.7017    228.88069   -3129.3563   -2670.1859    998.42577    12064.852 
   38550    312.19757    229.09944    -3136.648   -2672.2778    1021.3995    12057.516 
   38600    298.11521    228.75187   -3125.0624   -2681.6387    1556.0753    12050.547 
   38650     289.2356    228.46534   -3115.5114   -2685.2953    1892.2173    12044.212 
   38700    315.11994    229.28987   -3142.9957   -2674.2787    1175.9935    12038.603 
   38750    308.17116    229.01589    -3133.863   -2675.4818    1433.9866    12033.481 
   38800    310.87084    229.08144   -3136.0481   -2673.6513    1371.6694    12028.887 
   38850    316.24407       229.36   -3145.3333   -2674.9442    1139.0676    12024.797 
   38900    310.18035    229.19031   -3139.6769   -2678.3071    1255.4705    12021.116 
   38950    307.99018    229.22508    -3140.836    -2682.724    1280.8039    12017.875 
   39000    305.75106    229.12667   -3137.5558   -2682.7743    1342.4601    12015.109 
   39050      313.348    234.40459   -3146.8197   -2680.7383    1138.1942    12012.815 
   39100    307.91944    234.29058   -3143.0195   -2685.0126    1279.9422    12010.946 
   39150    294.19937    233.94318   -3131.4392   -2693.8399    1680.8464    12009.568 
   39200     278.6662    233.52965   -3117.6549     -2703.16    2031.3942    12008.889 
   39250    298.85598    234.26524   -3142.1747   -2697.6491    1302.3131    12009.039 
   39300    312.73872    234.77787   -3159.2624   -2694.0872    815.59146    12009.693 
   39350    299.17018    234.26946   -3142.3155   -2697.3225    1263.0443     12010.64 
   39400    295.22622    234.11482   -3137.1608   -2698.0342    1349.7156     12012.05 
   39450     318.1153    234.96685   -3165.5617   -2692.3893    574.62883    12013.923 
   39500    300.59209    234.34742   -3144.9139   -2697.8059     1074.717    12015.968 
   39550    294.54665    234.23536   -3141.1787   -2703.0629    1176.3664    12018.351 
   39600    289.51419     234.0652   -3135.5066   -2704.8762    1269.2069    12021.178 
   39650    279.52468    233.82461   -3127.4869   -2711.7151     1538.733    12024.495 
   39700    289.92562    234.13128   -3137.7093   -2706.4669    1166.9646     12028.41 
   39750    291.94332    234.26902   -3142.3006    -2708.057    960.44098    12032.771 
   39800    285.50929    234.03408   -3134.4695    -2709.796     1050.727    12037.472 
   39850    306.89445    234.84879   -3161.6263   -2705.1441    265.97266    12042.483 
   39900    294.26946    234.43254   -3147.7512   -2710.0477    616.50507    12047.505 
   39950    275.19621     233.8419   -3128.0633   -2718.7298    1277.9167    12052.681 
   40000    282.59069    234.11329   -3137.1096   -2716.7774     932.5479    12058.306 
   40050    299.07145    229.60203   -3153.4009   -2708.5548    298.69861    12064.226 
   40100    306.53014    229.79339   -3159.7797   -2703.8393    33.394056    12070.115 
   40150    302.00251    229.66639   -3155.5463   -2706.3405    92.022291    12075.821 
   40200    284.61778    229.02984    -3134.328   -2710.9806    643.15197    12081.399 
   40250    280.64226    228.92805    -3130.935   -2713.5009    695.56853    12087.086 
   40300    291.83236    229.27207   -3142.4022   -2708.3237    182.67409    12092.926 
   40350    292.44056    229.38293   -3146.0976   -2711.1144    13.341975    12098.667 
   40400     288.9544    229.28201   -3142.7337    -2712.936    19.663169     12104.21 
   40450    301.58729    229.72135   -3157.3782     -2708.79   -450.09963    12109.533 
   40500    280.93952    228.96938   -3132.3125   -2714.4363    86.295168    12114.475 
   40550    288.66934    229.23144   -3141.0481   -2711.6744   -131.24465    12119.183 
   40600    285.81193     228.9966   -3133.2201   -2708.0965   -11.842016    12123.651 
   40650    283.72407    229.02275   -3134.0917   -2712.0737    40.588518    12127.902 
   40700    280.67487    228.97918   -3132.6395   -2715.1569    105.01576     12131.98 
   40750    284.70121    229.07094    -3135.698   -2712.2265   -63.010419      12135.9 
   40800    280.02337     228.8767   -3129.2232   -2712.7097    4.4559515    12139.607 
   40850    291.03299    229.23749   -3141.2497   -2708.3601   -425.32969    12143.083 
   40900    287.68462    229.11177    -3137.059     -2709.15   -434.07439    12146.154 
   40950    291.06558     229.1828   -3139.4267   -2706.4888   -495.32882     12148.78 
   41000    284.39734    228.90309   -3130.1031   -2707.0836   -272.73337    12150.961 
   41050    298.14302    229.33323    -3144.441   -2700.9759   -674.38142     12152.74 
   41100    284.03578    228.93292   -3131.0973   -2708.6156   -310.44316    12154.003 
   41150    284.79971     228.8494   -3128.3135   -2704.6955   -220.51263    12154.873 
   41200    274.06704     228.5039   -3116.7968   -2709.1428    188.65032    12155.434 
   41250    279.30173    228.57311   -3119.1038   -2703.6636    121.21314    12155.876 
   41300    293.13614    229.00699   -3133.5662   -2697.5484   -365.70416    12156.171 
   41350    301.79159    229.24435   -3141.4784   -2692.5863   -679.65581     12156.07 
   41400    293.09235    228.97069   -3132.3564   -2696.4038   -379.31027    12155.416 
   41450    293.91146    228.99906   -3133.3019   -2696.1309   -298.41583    12154.336 
   41500    289.58804    228.91558   -3130.5192   -2699.7789   -199.42405     12152.89 
   41550    280.91896    228.61355   -3120.4517   -2702.6061    71.856252    12151.142 
   41600    289.90554    228.86357   -3128.7856    -2697.573   -84.973991      12149.2 
   41650    294.45922    228.95856   -3131.9519   -2693.9661    -191.9782    12147.018 
   41700    300.28021    229.06926    -3135.642   -2688.9979   -299.63129    12144.519 
   41750    291.08162    228.73314   -3124.4381   -2691.4763    130.44638    12141.677 
   41800    293.75573    228.82152   -3127.3841   -2690.4447    197.55923    12138.676 
   41850    298.41141    228.91435   -3130.4782   -2686.6138    54.141347    12135.561 
   41900     307.0093    229.19421   -3139.8068   -2683.1538   -221.68802     12132.25 
   41950    291.73279    228.68287   -3122.7622   -2688.8318    294.71654    12128.655 
   42000    292.64832    228.68804   -3122.9346   -2687.6424     398.4733    12124.984 
   42050    303.75324    229.10314   -3136.7713   -2684.9614    254.70564    12121.298 
   42100    291.42003    228.72532   -3124.1773   -2690.7121    743.44944    12117.581 
   42150    284.44025      228.396   -3113.1998   -2690.1165    986.22395    12114.057 
   42200    302.33875    229.00277   -3133.4258   -2683.7198    468.21267    12110.811 
   42250    304.75933    228.99705   -3133.2349   -2679.9285    501.74409    12107.641 
   42300    310.94213    229.13344   -3137.7813   -2675.2785    462.82388    12104.515 
   42350    294.36116    228.54823   -3118.2744   -2680.4345    1031.5867    12101.457 
   42400    295.40223    228.52039   -3117.3462   -2677.9578    1006.0017    12098.688 
   42450    299.43321    228.69259   -3123.0862    -2677.702    864.34711    12096.258 
   42500    293.24513    228.40355   -3113.4516   -2677.2717    1065.1748    12094.112 
   42550    300.67698    228.69601   -3123.2004   -2675.9661    810.25676    12092.283 
   42600    298.06961    228.56894   -3118.9647   -2675.6088    859.09832      12090.7 
   42650    302.61295    228.72901   -3124.3004   -2674.1865    695.41336    12089.353 
   42700    291.68586    228.34403   -3111.4677   -2677.6071    1055.2077     12088.21 
   42750    308.30426    228.97852   -3132.6174   -2674.0381    585.65355    12087.362 
   42800    312.08855     229.1343   -3137.8101   -2673.6021    420.83929    12086.648 
   42850    300.11727    228.75584   -3125.1945   -2678.7928    752.32702    12085.982 
   42900     298.8805    228.65738   -3121.9127   -2677.3506    907.59943    12085.466 
   42950    300.96538    228.68792   -3122.9306   -2675.2675    818.45775    12085.199 
   43000    316.97007    229.20903   -3140.3009   -2668.8319    342.86785    12085.121 
   43050     310.9133    224.03727   -3134.5756   -2672.1157    626.58753    12085.035 
   43100    301.87612    223.70914   -3123.6381   -2674.6202    922.40951    12085.055 
   43150    314.32379    224.12541   -3137.5135   -2669.9807    540.08476    12085.282 
   43200    300.89055    223.72485   -3124.1617   -2676.6098    893.23248    12085.609 
   43250    304.95683    223.71815   -3123.9383   -2670.3381    753.58373    12086.171 
   43300    319.74279    224.25924   -3141.9746   -2666.3815    258.16101    12086.874 
   43350     298.8248    223.66468   -3122.1559   -2677.6767    806.95784    12087.541 
   43400    313.28593    224.13891   -3137.9635   -2671.9744    459.86895    12088.351 
   43450    314.68499    224.19178    -3139.726   -2671.6559    407.96375    12089.197 
   43500    319.84632    224.30554   -3143.5178   -2667.7707    250.43409    12090.021 
   43550    318.86013    224.28085   -3142.6951   -2668.4149    247.71721    12090.745 
   43600    294.39587    223.48843   -3116.2809   -2678.3894     969.0713    12091.403 
   43650    299.25195    223.68706   -3122.9019   -2677.7873    870.56863     12092.31 
   43700    309.15638    224.01869   -3133.9564   -2674.1097    621.41155    12093.452 
   43750    311.46886    224.18599   -3139.5331   -2676.2467    452.12867    12094.689 
   43800    308.01667    224.05632   -3135.2107   -2677.0593     408.3846    12095.941 
   43850    303.09772      223.891   -3129.7002   -2678.8653    588.32068    12097.186 
   43900    286.01212    223.35243   -3111.7476   -2686.3262    1118.5893     12098.55 
   43950    299.28439    223.85732   -3128.5774   -2683.4146    660.89631    12100.251 
   44000    302.14121    223.94879   -3131.6265   -2682.2143    399.64172    12102.105 
[...]
   89400    305.69765    264.57018   -2985.6728   -2530.9707    -106.2801    12580.512 
   89450    296.18039     264.2519   -2975.0632   -2534.5173    153.83086    12582.551 
   89500    300.43416    264.45616   -2981.8721   -2534.9991   -24.899158    12584.539 
   89550    297.87695    264.25149   -2975.0498   -2531.9804     105.5165     12586.42 
   89600    295.87978    264.18387   -2972.7955   -2532.6968     99.89257    12588.259 
   89650    301.16659    264.36029   -2978.6762   -2530.7137   -93.446806    12590.031 
   89700    292.27502    264.09488   -2969.8294   -2535.0924    162.03228    12591.672 
   89750    302.68258    264.45081   -2981.6935   -2531.4761   -217.95529    12593.256 
   89800    309.45071    264.71407   -2990.4689   -2530.1844   -551.93092    12594.602 
   89850     310.1858    264.71237   -2990.4122   -2529.0344   -574.38502    12595.536 
   89900    302.26438     264.4455   -2981.5168   -2531.9214   -298.23282    12596.036 
   89950    293.99869    264.20334   -2973.4446   -2536.1438   -78.154278    12596.249 
   90000    298.21946    264.38317   -2979.4389     -2535.86   -212.89969    12596.285 
   90050    292.63973     264.3026   -2976.7533   -2541.4739   -32.020312    12596.097 
   90100    285.62872    264.06008   -2968.6693   -2543.8183    188.90955    12595.786 
   90150    294.50325     264.4621   -2982.0699   -2544.0186   -237.38027    12595.453 
   90200    304.01849    264.80686   -2993.5619   -2541.3574   -540.44581    12594.877 
   90250    294.75257    264.48258   -2982.7527   -2544.3306   -99.643359    12593.914 
   90300    292.55356    264.48849   -2982.9497   -2547.7985    4.7181712    12592.764 
   90350    292.44966    264.54241    -2984.747   -2549.7503    -61.88525    12591.509 
   90400    289.43173    264.46625   -2982.2082   -2551.7004    8.3604512    12590.121 
   90450    291.94059    264.54431   -2984.8104   -2550.5709   -51.295228    12588.626 
   90500    290.27988    264.59704   -2986.5679   -2554.7986   -28.253506    12586.996 
   90550    280.86906    264.26778   -2975.5928   -2557.8214    177.65784    12585.261 
   90600    282.05581     264.4001   -2980.0035   -2560.4668   -10.757247    12583.503 
   90650    278.86631    264.32626   -2977.5421   -2562.7496    -17.42374    12581.646 
   90700     292.8761    264.84435   -2994.8116   -2559.1806   -517.50464    12579.639 
   90750     290.5592    264.82679   -2994.2263   -2562.0415   -531.87883    12577.265 
   90800    293.45126    264.90741   -2996.9138   -2560.4273   -528.04164    12574.445 
   90850    289.93808    264.85224   -2995.0747   -2563.8138   -324.71624    12571.228 
   90900     295.3213    264.99702   -2999.9008   -2560.6327   -404.90058    12567.706 
   90950    280.42973    264.55052   -2985.0173   -2567.8994    29.141391    12563.874 
   91000    286.74799    264.91913   -2997.3044   -2570.7885     -205.915    12559.919 
   91050    289.32266    265.00963   -3000.3209   -2569.9754    -253.4429    12555.766 
   91100    284.97242    264.81632   -2993.8774   -2570.0025   -81.240632    12551.379 
   91150    291.51981    265.13393   -3004.4644   -2570.8507   -369.01972    12546.809 
   91200    284.49122    264.88244   -2996.0812   -2572.9221   -211.22781    12541.958 
   91250    292.80335    265.32918   -3010.9726   -2575.4498    -496.7414    12536.845 
   91300    282.39696    264.96473   -2998.8244   -2578.7803   -88.062453    12531.388 
   91350    286.74581    265.03647   -3001.2156    -2574.703   -154.53579    12525.755 
   91400     286.0329    265.04891   -3001.6304   -2576.1782   -103.79666    12519.943 
   91450    282.96524    264.93768   -2997.9225   -2577.0332     32.33602     12513.98 
   91500    302.02191    265.59952   -3019.9838   -2570.7492   -585.46472    12507.882 
   91550    290.37676    265.17206   -3005.7355   -2573.8221   -208.87486    12501.418 
   91600    298.63158     265.6197   -3020.6566   -2576.4647   -460.90984     12494.68 
   91650    288.82531    265.25868   -3008.6226   -2579.0168   -122.50536     12487.64 
   91700    292.32393    265.44459   -3014.8195   -2580.0098   -148.20392    12480.401 
   91750    298.89949    265.69183   -3023.0609   -2578.4706   -147.66782    12472.981 
   91800    297.02391    265.64395   -3021.4649   -2579.6644    115.47837    12465.404 
   91850     289.9888    265.43775   -3014.5917   -2583.2554    372.46355    12457.807 
   91900    298.10095    265.69415   -3023.1382   -2579.7357    174.15484      12450.3 
   91950    285.84456    265.15713   -3005.2375   -2580.0654    680.74372    12442.836 
   92000    293.35656    265.40449   -3013.4829   -2577.1372    476.32628    12435.628 
   92050    302.96939    260.74419   -3024.8064   -2574.1624    314.46697    12428.599 
   92100    300.40055    260.68177   -3022.7257   -2575.9027    533.16443    12421.659 
   92150    288.93919    260.23437   -3007.8124   -2578.0373    924.28386    12414.927 
   92200    303.71046    260.78608   -3026.2026   -2574.4563    435.77775    12408.532 
   92250    295.44051    260.47633   -3015.8775   -2576.4322    797.68055     12402.33 
   92300    308.34799    261.01417   -3033.8056   -2575.1613    542.27987    12396.418 
   92350    311.42881    261.08537   -3036.1792   -2572.9524    501.80501    12390.722 
   92400    298.84694     260.6168   -3020.5601    -2576.048    921.94025    12385.216 
   92450    310.25442    261.01993   -3033.9978   -2572.5179    522.79589    12380.062 
   92500    304.18037    260.80953   -3026.9842    -2574.539    744.86778     12375.11 
   92550    284.69653    260.09881   -3003.2937   -2579.8292    1544.0875    12370.503 
   92600    296.33911    260.62261   -3020.7538   -2579.9718    1262.0955    12366.593 
   92650    305.58292    260.99001   -3033.0004    -2578.469    1000.6527    12363.272 
   92700    305.17163    260.98339   -3032.7796   -2578.8599     1106.837    12360.412 
   92750    306.75592    260.96365   -3032.1215   -2575.8453    1146.8057    12358.059 
   92800    309.49326    261.06048   -3035.3492   -2575.0015    1092.6914     12356.23 
   92850    299.92934    260.65723   -3021.9078   -2575.7856    1356.3613    12354.921 
   92900    302.77669    260.71594   -3023.8646   -2573.5072    1170.1246    12354.226 
   92950    311.37935    261.08911   -3036.3036   -2573.1504    821.14988    12354.043 
   93000    304.16563    260.79068    -3026.356   -2573.9327    1053.9888    12354.236 
   93050    295.32846    265.44744   -3014.9148   -2575.6361    1298.5822    12354.918 
   93100    311.64828    266.10938   -3036.9794   -2573.4262    698.65991     12356.17 
   93150    305.89538    265.78137   -3026.0457   -2571.0495    960.27513    12357.753 
   93200    297.64089    265.52975   -3017.6582     -2574.94    1267.4738    12359.776 
   93250     296.6952     265.4756   -3015.8535   -2574.5418    1304.3318    12362.386 
   93300    282.01606    264.87546   -2995.8488   -2576.3713    1699.4865     12365.65 
   93350    309.67737    266.00608    -3033.536   -2572.9144    594.02661    12369.681 
   93400    312.97289    266.18114   -3039.3715    -2573.848    412.45734    12373.991 
   93450    297.46596    265.57215   -3019.0715   -2576.6135    1005.3157    12378.465 
   93500    291.66799    265.28056   -3009.3519   -2575.5179    1198.1025    12383.383 
   93550    295.85529    265.36164   -3012.0546   -2571.9922    947.17043    12388.857 
   93600    306.78945    265.74987   -3024.9955   -2568.6694    486.77292    12394.754 
   93650     309.4261    265.90845   -3030.2815   -2570.0337     321.1776    12400.826 
   93700    296.75182    265.39227   -3013.0756   -2571.6798    775.66232    12407.003 
   93750    303.72545    265.68442   -3022.8141   -2571.0455    573.23205    12413.449 
   93800    293.20955    265.23402   -3007.8008   -2571.6738    834.35119    12420.159 
   93850    291.69832    265.10265   -3003.4217   -2569.5426     775.0748    12427.213 
   93900    299.62776    265.47902   -3015.9672   -2570.2936     376.0082    12434.577 
   93950    303.42792    265.52046   -3017.3488   -2566.0228    286.49674    12442.064 
   94000     295.1692    265.14158   -3004.7192   -2565.6774    573.58286    12449.637 
   94050    300.22944    265.37775   -3012.5915    -2566.023    305.44364    12457.396 
   94100    294.98735    265.11873   -3003.9577   -2565.1864    359.40781    12465.251 
   94150    297.23473    265.12198   -3004.0661    -2561.952    215.27054    12473.191 
   94200    303.96601    265.42983   -3014.3277   -2562.2013    -77.54826    12481.121 
   94250    301.51291     265.3037   -3010.1233   -2561.6457    23.446097    12488.915 
   94300     290.8632      264.847   -2994.9001   -2562.2631    361.35554    12496.645 
   94350    291.20915    264.83388   -2994.4627   -2561.3112    315.57054    12504.443 
   94400    294.36676    264.94895   -2998.2985   -2560.4502    120.82954    12512.315 
   94450    305.58398    265.26274    -3008.758    -2554.225   -303.88635    12520.127 
   94500    291.65276    264.69578   -2989.8594    -2556.048    148.48251    12527.698 
   94550    293.75764    264.77265   -2992.4215   -2555.4793    66.702761    12535.211 
   94600    299.20871     264.9418   -2998.0602   -2553.0099   -190.72749    12542.652 
   94650    312.03478    265.45843   -3015.2811    -2551.153   -697.41385    12549.838 
   94700    297.63261    264.73644   -2991.2145   -2548.5086   -280.48065     12556.58 
   94750    297.71013    264.65351   -2988.4505   -2545.6292   -334.59707    12562.992 
   94800    285.00563    264.15106   -2971.7021   -2547.7778    20.916215    12569.135 
   94850    288.88698     264.2117   -2973.7232   -2544.0257   -34.795215     12575.15 
   94900    293.39111    264.41592   -2980.5307   -2544.1336   -145.48562    12581.028 
   94950    306.00791    264.86142   -2995.3807   -2540.2171   -628.48665    12586.696 
   95000    309.15736    264.91242   -2997.0808   -2537.2326   -732.25532    12591.891 
   95050    296.73301    264.32691   -2977.5637   -2536.1958   -272.38309    12596.573 
   95100    308.18638    264.71255   -2990.4182   -2532.0143   -665.02504    12600.936 
   95150    311.49645    264.76576   -2992.1919   -2528.8646   -876.13734    12604.833 
   95200    319.40692    265.08102   -3002.7007   -2527.6071   -1144.9677    12608.089 
   95250    294.60327    264.13311   -2971.1038   -2532.9038   -248.00768    12610.638 
   95300    297.96347    264.24478   -2974.8261    -2531.628   -254.50563    12612.856 
   95350    300.85772    264.34538   -2978.1795   -2530.6764   -335.18751    12614.816 
   95400    307.71303    264.50739   -2983.5798     -2525.88   -491.07837    12616.461 
   95450    308.89281    264.52216   -2984.0719   -2524.6172   -470.70842    12617.709 
   95500    289.44805    263.84406   -2961.4686   -2530.9366    168.10117    12618.606 
   95550    292.35411    263.89851   -2963.2837   -2528.4291    70.596621    12619.454 
   95600    301.50504    264.15254   -2971.7513   -2523.2854   -83.995262     12620.23 
   95650    296.82935    263.88766    -2962.922   -2521.4108     256.3113    12620.869 
   95700    308.57344    264.38227   -2979.4091   -2520.4295   -193.03528    12621.496 
   95750    304.40405    264.11819   -2970.6062   -2517.8283    -44.63793    12621.951 
   95800    305.25656    264.19959   -2973.3198   -2519.2738   -36.672801    12622.233 
   95850    294.38407    263.73548   -2957.8495   -2519.9755    280.73523    12622.415 
   95900    307.60504    264.18569   -2972.8565   -2515.3173   -212.28765    12622.592 
   95950    299.29728    263.79531   -2959.8435   -2514.6615    78.405955    12622.583 
   96000    310.80009      264.188   -2972.9334   -2510.6418   -269.74213    12622.457 
   96050    317.97003    264.49084   -2983.0278   -2510.0715   -483.72475    12622.075 
   96100    307.13417    263.98764   -2966.2547   -2509.4159    77.804135    12621.339 
   96150     297.8291    263.61448   -2953.8159   -2510.8176    460.24222    12620.524 
   96200    310.04828    264.05828   -2968.6093    -2507.436   -21.987382    12619.817 
   96250    322.04506    264.51171   -2983.7235   -2504.7059   -532.36736    12618.975 
   96300    313.93671    264.21453   -2973.8176   -2506.8605   -284.81033    12617.744 
   96350    303.10558    263.78236    -2959.412   -2508.5654    179.94437    12616.249 
   96400    299.89189    263.62658   -2954.2192   -2508.1527    424.04582     12614.75 
   96450    302.96237     263.8003     -2960.01   -2509.3764    339.66526    12613.367 
   96500    307.41972    264.00938   -2966.9793   -2509.7157    152.01446    12612.063 
   96550    315.81301    264.36679   -2978.8931   -2509.1452   -49.423899     12610.73 
   96600    312.97818    264.27788   -2975.9294   -2510.3981    113.15018    12609.281 
   96650    308.30337    264.04847   -2968.2824   -2509.7045    300.19022    12607.791 
   96700    298.03326    263.64824   -2954.9412   -2511.6393     668.2117    12606.372 
   96750    295.33709    263.47807   -2949.2692   -2509.9776    824.22632    12605.223 
   96800    300.85691    263.70404   -2956.8014   -2509.2995    599.20948    12604.438 
   96850    317.43173    264.34136   -2978.0454   -2505.8898    1.3302057    12603.869 
   96900    317.84073    264.38272   -2979.4241   -2506.6601   -10.064096    12603.212 
   96950     304.4062    263.78046   -2959.3488   -2506.5676    447.82921    12602.479 
   97000    312.78471    264.12762   -2970.9208   -2505.6772     113.7542    12601.837 
   97050    318.10132    264.32216   -2977.4054   -2504.2538   -84.175688    12601.164 
   97100    316.02179    264.18708   -2972.9027   -2502.8442    28.464691    12600.341 
   97150    306.96355    263.93889   -2964.6297   -2508.0447    291.75993    12599.424 
   97200    310.26423    264.21846   -2973.9488   -2512.4543    116.66815    12598.535 
   97250    303.89881     263.9869   -2966.2299   -2514.2034    343.03925    12597.633 
   97300    310.11864    264.25228    -2975.076    -2513.798    158.86048    12596.791 
   97350    312.41726    264.32418   -2977.4728   -2512.7758    25.765153    12595.941 
   97400     305.0127    264.01471   -2967.1571   -2513.4738    93.358756    12595.016 
   97450    317.04526    264.50926   -2983.6421   -2512.0613   -400.75463    12593.986 
   97500      308.208    264.16192   -2972.0638   -2513.6278    -17.52847    12592.676 
   97550    312.12881    264.39234   -2979.7448   -2515.4769   -26.102318    12591.205 
   97600     303.5207    264.19047   -2973.0156   -2521.5515    192.31816    12589.638 
   97650    298.35683    264.04579   -2968.1929   -2524.4097     275.7522    12588.047 
   97700    299.92597    264.17543   -2972.5142   -2526.3971    123.33332    12586.501 
   97750    314.33546      264.838   -2994.5999   -2527.0497   -422.32301    12584.895 
   97800    301.77551      264.358   -2978.6001   -2529.7318    -28.24199    12583.006 
   97850    310.71373    264.90224   -2996.7414   -2534.5783   -395.92434    12580.936 
   97900    305.24735    264.73077   -2991.0256   -2536.9933   -243.25085    12578.576 
   97950    293.54129    264.25516    -2975.172   -2538.5516    167.37896    12575.989 
   98000    298.50482    264.56405   -2985.4682   -2541.4649   -73.625193     12573.34 
   98050    295.73623    264.58785   -2986.2616   -2546.3763   -143.32555     12570.56 
   98100    309.96517    265.22536   -3007.5121   -2546.4624    -714.2352    12567.554 
   98150    306.58235    265.11103   -3003.7011   -2547.6831   -652.12451    12564.072 
   98200    303.39605    265.12943   -3004.3143   -2553.0357   -559.61558    12560.108 
   98250     299.9403    265.14043   -3004.6812   -2558.5427    -507.1868    12555.724 
   98300    305.73436    265.43285   -3014.4284   -2559.6717   -745.17072    12550.909 
   98350    291.91515    264.95595   -2998.5317     -2564.33   -311.06343    12545.622 
   98400    288.63215    264.83818   -2994.6062   -2565.2877    -159.6899    12540.044 
   98450    294.05151    265.08797   -3002.9323    -2565.553   -399.62243    12534.255 
   98500    296.33424    265.13872   -3004.6241   -2563.8494   -605.77968    12528.144 
   98550    301.47881    265.47236   -3015.7454   -2567.3185   -792.92916    12521.578 
   98600    285.42756    264.72453   -2990.8175   -2566.2657    2.6322341    12514.521 
   98650    284.92194    264.81786   -2993.9285   -2570.1287    101.35164    12507.332 
   98700    302.35292    265.50569   -3016.8562   -2567.1292   -532.59994    12500.075 
   98750    293.69609    265.23024   -3007.6747    -2570.824   -234.01995    12492.478 
   98800    297.36815    265.46214   -3015.4047   -2573.0921   -190.54682    12484.623 
   98850    295.09223    265.34592   -3011.5305   -2572.6032    -36.87589    12476.597 
   98900    303.67917    265.67002    -3022.334   -2570.6342    -259.2725    12468.437 
   98950    287.72752    265.06688   -3002.2294   -2574.2565    368.04877    12460.094 
   99000    289.39231    265.15861   -3005.2869   -2574.8378     415.0846    12451.847 
   99050    297.11702    265.47653   -3015.8843   -2573.9452    138.95405    12443.737 
   99100     282.2729    264.83055   -2994.3518   -2574.4922    643.63883    12435.696 
   99150    302.84296    265.64684   -3021.5613   -2571.1053    11.520528    12427.856 
   99200    306.40683     265.8529   -3028.4299    -2572.673    -107.5607    12419.977 
   99250    299.70798    265.63449   -3021.1495   -2575.3566     177.6829    12411.976 
   99300    301.40543    265.64426   -3021.4753   -2573.1575    232.95318    12403.979 
   99350    303.61322    265.79732   -3026.5774   -2574.9758     193.1736    12396.022 
   99400    299.49064    265.67613   -3022.5378   -2577.0682    356.42249    12388.111 
   99450    303.65382    265.80385   -3026.7952   -2575.1331    380.79216    12380.317 
   99500    298.45385    265.64815    -3021.605   -2577.6775    772.52043    12372.674 
   99550    294.92543    265.47781    -3015.927   -2577.2477    1057.2055    12365.387 
   99600    293.65586     265.5931   -3019.7699   -2582.9791     1078.135    12358.591 
   99650    305.03432    266.05749   -3035.2497   -2581.5343    746.49409    12352.307 
   99700    301.03018    265.86005   -3028.6682   -2580.9087    1022.1096    12346.406 
   99750    296.56515    265.67107    -3022.369   -2581.2509    1293.7733    12340.978 
   99800    324.57371    266.74951   -3058.3169   -2575.5381    375.73557    12336.103 
   99850    307.49946    266.03887    -3034.629   -2577.2468    996.21638    12331.454 
   99900    320.68925    266.52952   -3050.9841   -2573.9832    627.31343    12327.187 
   99950    313.00924    266.28867   -3042.9556   -2577.3781    885.80806    12323.209 
  100000    300.25907    265.97889   -3032.6298   -2586.0172    1297.6503    12319.642 
Loop time of 26.72 on 1 procs for 100000 steps with 500 atoms

Performance: 323.353 ns/day, 0.074 hours/ns, 3742.509 timesteps/s
99.9% CPU use with 1 MPI tasks x 1 OpenMP threads

MPI task timing breakdown:
Section |  min time  |  avg time  |  max time  |%varavg| %total
---------------------------------------------------------------
Pair    | 22.072     | 22.072     | 22.072     |   0.0 | 82.61
Bond    | 0.0071077  | 0.0071077  | 0.0071077  |   0.0 |  0.03
Neigh   | 0.53328    | 0.53328    | 0.53328    |   0.0 |  2.00
Comm    | 0.78256    | 0.78256    | 0.78256    |   0.0 |  2.93
Output  | 0.018115   | 0.018115   | 0.018115   |   0.0 |  0.07
Modify  | 2.7183     | 2.7183     | 2.7183     |   0.0 | 10.17
Other   |            | 0.5886     |            |       |  2.20

Nlocal:    500 ave 500 max 500 min
Histogram: 1 0 0 0 0 0 0 0 0 0
Nghost:    1579 ave 1579 max 1579 min
Histogram: 1 0 0 0 0 0 0 0 0 0
Neighs:    14424 ave 14424 max 14424 min
Histogram: 1 0 0 0 0 0 0 0 0 0

Total # of neighbors = 14424
Ave neighs/atom = 28.848
Ave special neighs/atom = 0
Neighbor list builds = 642
Dangerous builds = 0

write_data      ${walker}/final_restart_file
write_data      11/final_restart_file

quit
