LAMMPS (19 May 2017)
Processor partition = 7
  using 1 OpenMP thread(s) per MPI task
# gREM variables
variable        lambda world 1000 1005 1010 1015 1020 1025 1030 1035 1040 1045 1050 1055 1060 1065 1070 1075
variable        walker world 0 1 2 3 4 5 6 7 8 9 10 11 12 13 14 15
variable        replica world 2 3 4 6 13 0 1 7 11 14 9 8 5 10 12 15

variable        T0 equal 300.0
variable        press equal 0.0

units           real
atom_style      full
pair_style      lj/cut 5.0

# LJ particles
read_data       ${walker}/restart_file
read_data       7/restart_file
  orthogonal box = (1.04169 1.04169 1.04169) to (23.9583 23.9583 23.9583)
  1 by 1 by 1 MPI processor grid
  reading atoms ...
  500 atoms
  reading velocities ...
  500 velocities
  0 = max # of 1-2 neighbors
  0 = max # of 1-3 neighbors
  0 = max # of 1-4 neighbors
  1 = max # of special neighbors

#dump            dump all xyz 1000 ${walker}/dump.xyz

fix             fxnpt all npt temp ${T0} ${T0} 1000.0 iso ${press} ${press} 10000.0
fix             fxnpt all npt temp 300 ${T0} 1000.0 iso ${press} ${press} 10000.0
fix             fxnpt all npt temp 300 300 1000.0 iso ${press} ${press} 10000.0
fix             fxnpt all npt temp 300 300 1000.0 iso 0 ${press} 10000.0
fix             fxnpt all npt temp 300 300 1000.0 iso 0 0 10000.0
fix             fxgREM all grem ${lambda} -.03 -30000 fxnpt
fix             fxgREM all grem 1035 -.03 -30000 fxnpt
thermo_modify   press fxgREM_press

thermo          50
thermo_style    custom step temp f_fxgREM pe etotal press vol
WARNING: New thermo_style command, previous thermo_modify settings will be lost (../output.cpp:705)
timestep        1.0

temper/grem     100000 1000 ${lambda} fxgREM fxnpt 10294 98392 ${walker}
temper/grem     100000 1000 1035 fxgREM fxnpt 10294 98392 ${walker}
temper/grem     100000 1000 1035 fxgREM fxnpt 10294 98392 7
Neighbor list info ...
  update every 1 steps, delay 10 steps, check yes
  max neighbors/atom: 2000, page size: 100000
  master list distance cutoff = 7
  ghost atom cutoff = 7
  binsize = 3.5, bins = 7 7 7
  1 neighbor lists, perpetual/occasional/extra = 1 0 0
  (1) pair lj/cut, perpetual
      attributes: half, newton on
      pair build: half/bin/newton
      stencil: half/bin/3d/newton
      bin: standard
Per MPI rank memory allocation (min/avg/max) = 5.723 | 5.723 | 5.723 Mbytes
Step Temp f_fxgREM PotEng TotEng Press Volume 
       0    335.71813     229.2663     -3142.21   -2642.8548    1229.7245    12035.145 
      50    313.99774    228.52164   -3117.3879   -2650.3401    1922.0177    12035.421 
     100    312.96918    228.50058   -3116.6862   -2651.1682     1889.797    12036.457 
     150    328.83768    229.03406   -3134.4687   -2645.3476    1387.1492    12038.237 
     200    305.87479    228.21182   -3107.0606    -2652.095    2080.7302    12040.604 
     250       311.44    228.37781   -3112.5938   -2649.3504    1859.9403      12043.8 
     300    325.88012    228.95899   -3131.9663   -2647.2443     1280.104    12047.742 
     350    329.40214    229.08322   -3136.1072   -2646.1465    1186.4215     12052.16 
     400    315.02883    228.70622   -3123.5407   -2654.9592    1479.9811    12056.997 
     450    311.30352    228.57631   -3119.2103   -2656.1699    1465.8191    12062.393 
     500     311.4572    228.56524   -3118.8412   -2655.5722    1432.0744    12068.354 
     550    312.08314    228.64756   -3121.5852   -2657.3852    1333.4337     12074.87 
     600      304.021    228.37778   -3112.5928   -2660.3846    1413.2744    12081.898 
     650    292.37994    228.03795    -3101.265    -2666.372     1492.315    12089.475 
     700     320.5011    229.02932   -3134.3107   -2657.5896    437.19848     12097.57 
     750    301.38943    228.44434   -3114.8115   -2666.5175    866.66839    12105.771 
     800    311.23247    228.72288   -3124.0962   -2661.1614    603.95656    12114.166 
     850    312.68256    228.78461   -3126.1535   -2661.0619    500.79212    12122.702 
     900    312.13189    228.80825   -3126.9417   -2662.6691    456.71175    12131.279 
     950    286.59941     228.0109   -3100.3633   -2674.0684     993.1411    12139.923 
    1000    304.26807     228.6227   -3120.7565   -2668.1808    270.48473     12148.82 
    1050    309.71092    228.70452   -3123.4839   -2662.8124   -10.788528    12157.694 
    1100    312.76131    228.96604   -3132.2013   -2666.9926   -258.57055     12166.32 
    1150    300.35105    228.60267   -3120.0889   -2673.3395   -36.084996    12174.601 
    1200    296.62805    228.55245    -3118.415   -2677.2032   -110.53803    12182.635 
    1250    299.05297    228.70085   -3123.3618   -2678.5432    -266.9665    12190.392 
    1300    286.36671     228.2307   -3107.6899   -2681.7411    79.537232    12197.816 
    1350    288.71728    228.36556   -3112.1855   -2682.7404   -156.36966    12205.057 
    1400    298.61754     228.6508   -3121.6935   -2677.5225   -523.67786        12212 
    1450    300.27672    228.75273    -3125.091   -2678.4521   -644.27108    12218.439 
    1500    283.69944    228.16549   -3105.5163   -2683.5349   -264.61146    12224.351 
    1550      289.874    228.41435   -3113.8116    -2682.646    -549.5037    12229.871 
    1600    280.88947    228.17229   -3105.7429   -2687.9411   -402.39582    12234.909 
    1650    290.26731    228.47553   -3115.8509   -2684.1003   -646.67778    12239.475 
    1700    294.77788    228.68196   -3122.7319   -2684.2721   -860.78633    12243.487 
    1750    297.49901     228.7786   -3125.9533   -2683.4461   -1046.5823    12246.811 
    1800    288.71952    228.47127   -3115.7089   -2686.2605   -915.50003    12249.372 
    1850    292.86171    228.61333   -3120.4443   -2684.8348   -1039.7325    12251.207 
    1900    284.88018     228.3893   -3112.9765   -2689.2389   -743.72013    12252.283 
    1950     279.4436    228.21013   -3107.0044   -2691.3532   -664.31726    12252.736 
    2000    294.00447    228.75113   -3125.0375   -2687.7281   -1148.3366     12252.59 
    2050    288.72991      223.495   -3116.4999    -2687.036     -940.707    12251.639 
    2100     290.3124     223.4618   -3115.3932   -2683.5755   -964.16025    12249.925 
    2150     300.9152    223.88625   -3129.5418   -2681.9532   -1226.7331    12247.434 
    2200    285.83754    223.48819   -3116.2731   -2691.1114   -758.13146    12244.079 
    2250    285.95285    223.48357   -3116.1191   -2690.7859   -762.24023    12240.063 
    2300    296.99281    223.79037   -3126.3456   -2684.5913   -999.82134    12235.395 
    2350    289.62346    223.53176   -3117.7255   -2686.9325   -632.36599    12229.989 
    2400    290.01178    223.50225   -3116.7417   -2685.3711   -546.55881    12224.009 
    2450    309.05708     224.1688   -3138.9601   -2679.2611   -1085.2402    12217.474 
    2500    313.69021    224.28414   -3142.8046   -2676.2142   -1139.8767     12210.14 
    2550    288.11387     223.3982   -3113.2732   -2684.7257   -234.32509    12202.011 
    2600    300.66159    223.76001   -3125.3336   -2678.1222   -504.29896    12193.459 
    2650    303.51346    223.91502   -3130.5008   -2679.0476   -486.30963    12184.414 
    2700    295.22444    223.74208    -3124.736    -2685.612   -116.23686     12174.91 
    2750    296.77161    223.82115   -3127.3716   -2685.9463   -84.600883    12165.112 
    2800    293.52303    223.69259   -3123.0862    -2686.493    166.20883    12155.057 
    2850    266.48177    222.75032   -3091.6775    -2695.306    1106.1627    12144.953 
    2900    300.42144     223.8013   -3126.7099   -2679.8558    252.17165     12135.15 
    2950    295.09876    223.76645   -3125.5484   -2686.6113      501.735    12125.331 
    3000    285.33195    223.51458   -3117.1526    -2692.743    878.68672    12115.578 
    3050    311.79086    229.27036   -3142.3453     -2678.58     237.5137    12106.056 
    3100    312.37399     229.2933     -3143.11   -2678.4774    353.25827    12096.524 
    3150    310.11266    229.19388    -3139.796   -2678.5269    528.00813    12086.981 
    3200    301.15837    228.94244   -3131.4148   -2683.4646    845.87738    12077.533 
    3250    290.37948    228.63986   -3121.3288   -2689.4113    1168.3389    12068.369 
    3300    314.74053    229.40801   -3146.9338   -2678.7811    589.01458    12059.577 
    3350    308.12321    229.15434   -3138.4779    -2680.168    908.21588    12050.973 
    3400    308.10228    229.24507   -3141.5024   -2683.2236    983.10622    12042.644 
    3450    314.15152     229.3865   -3146.2168   -2678.9402    964.59668    12034.644 
    3500          315    229.43647   -3147.8822   -2679.3436    1063.2732    12026.954 
    3550    307.46165    229.17764   -3139.2547   -2681.9288    1353.9425    12019.653 
    3600    297.29262    228.78269   -3126.0896   -2683.8894    1721.0136    12012.896 
    3650    301.53438    229.01661    -3133.887   -2685.3775    1549.0483    12006.808 
    3700    305.47747    229.16655   -3138.8851   -2684.5105    1501.6267    12001.345 
    3750     310.0839    229.23366   -3141.1219   -2679.8956     1492.348    11996.478 
    3800    310.18663    229.17719   -3139.2397   -2677.8606    1516.7731     11992.19 
    3850    301.41879     228.9267     -3130.89   -2682.5524    1913.6752      11988.5 
    3900     289.5227    228.56169   -3118.7231     -2688.08    2364.9906    11985.636 
    3950    303.56402    229.04717   -3134.9057   -2683.3773    1868.9976    11983.781 
    4000    317.33917    229.52273   -3150.7578   -2678.7399    1411.9481    11982.698 
    4050    315.47483    224.50863   -3150.2875   -2681.0426    1457.3568    11982.165 
    4100    312.62331    224.41745   -3147.2484   -2682.2449    1533.9435    11982.163 
    4150    316.16524    224.51876   -3150.6253   -2680.3534    1472.4596    11982.723 
    4200    300.67157    223.98717   -3132.9055   -2685.6793    1919.9605    11983.873 
    4250    323.55902    224.74623   -3158.2076   -2676.9381    1150.3407    11985.724 
    4300    321.49227    224.72067   -3157.3557   -2679.1603    1052.2021    11987.966 
    4350    304.31235    224.19432   -3139.8106    -2687.169    1470.3937    11990.532 
    4400    307.70239     224.3482   -3144.9401   -2687.2561    1308.7992    11993.604 
    4450    312.55985    224.52222   -3150.7408   -2685.8317    1185.1935    11997.132 
    4500    307.30606    224.36159   -3145.3863   -2688.2918     1318.393    12001.067 
    4550    305.14822    224.33856   -3144.6187   -2690.7338    1302.3242    12005.439 
    4600    305.13887     224.4123   -3147.0766   -2693.2056    1148.4572     12010.26 
    4650    300.32128    224.31958    -3143.986   -2697.2809    1151.9476    12015.468 
    4700    296.21563     224.2314   -3141.0466   -2700.4483    1154.8484    12021.043 
    4750    297.73434    224.29589   -3143.1964   -2700.3392    962.06412    12026.989 
    4800    306.72925    224.70551   -3156.8503   -2700.6138    545.24491    12033.196 
    4850     307.2812    224.69745   -3156.5817   -2699.5242    480.90049    12039.478 
    4900     294.7793    224.30234   -3143.4113   -2704.9495     798.5407    12045.797 
    4950    302.66169    224.65869   -3155.2897   -2705.1034    424.62781    12052.271 
    5000    307.19298    224.77801   -3159.2671   -2702.3408    122.50747    12058.757 
    5050    303.55181    229.65596   -3155.1985   -2703.6882    100.62428    12065.072 
    5100    290.29483    229.31933   -3143.9778   -2712.1863    375.59355    12071.233 
    5150    288.08591    229.23998   -3141.3327   -2712.8267    364.48247    12077.355 
    5200    285.33503    229.05932   -3135.3108   -2710.8966    295.15976    12083.471 
    5250    291.80669    229.32098   -3144.0326   -2709.9923   -1.2574226    12089.518 
    5300    282.80389    229.11549   -3137.1829   -2716.5336    268.33957     12095.37 
    5350    283.15451    229.22143   -3140.7143   -2719.5435    200.01613    12101.128 
    5400    270.80156    228.77189   -3125.7296   -2722.9328    470.26658     12106.81 
    5450    271.46165    228.83488   -3127.8293   -2724.0507    314.12432    12112.521 
    5500    281.59009    229.22671   -3140.8902   -2722.0463   -193.38811    12118.178 
    5550    292.27881    229.53555   -3151.1851   -2716.4426   -581.51687    12123.513 
    5600    280.59698    229.18548   -3139.5162   -2722.1494   -265.68069    12128.354 
    5650    282.98123    229.30021   -3143.3405   -2722.4273   -391.09898    12132.821 
    5700    280.42887    229.22327   -3140.7757    -2723.659   -360.29081    12136.876 
    5750    269.70001    228.78605   -3126.2018   -2725.0435   -78.635481    12140.548 
    5800    280.50158     229.1525   -3138.4165   -2721.1917   -460.38154    12143.928 
    5850    277.17361    229.03845   -3134.6151   -2722.3403   -332.49753    12146.884 
    5900    273.64835    228.89506   -3129.8353   -2722.8041   -184.78551    12149.452 
    5950    277.61992     229.0355   -3134.5167   -2721.5781   -320.05038    12151.705 
    6000    283.87404    229.22677   -3140.8925   -2718.6513    -514.4279    12153.592 
    6050    270.64035    233.72283   -3124.0944   -2721.5374   -115.92761    12155.045 
    6100    276.76936    233.87846   -3129.2819   -2717.6085   -232.59924    12156.217 
    6150    280.63061    233.98442    -3132.814   -2715.3973   -333.38989    12157.087 
    6200    276.44713    233.86837   -3128.9457   -2717.7515   -179.27909      12157.6 
    6250    269.98348    233.58147   -3119.3824   -2717.8024    24.474472    12157.839 
    6300    291.22077    234.28391   -3142.7972   -2709.6283   -711.59458    12157.842 
    6350    277.21391    233.85862   -3128.6206   -2716.2859   -397.43925    12157.333 
    6400    277.36555    233.83243   -3127.7476   -2715.1874   -307.50918    12156.412 
    6450    297.27304    234.48137   -3149.3791    -2707.208   -859.47438    12155.111 
    6500    294.50982    234.35025   -3145.0084   -2706.9474   -761.58069    12153.183 
    6550    278.37228    233.73283   -3124.4275   -2710.3699   -193.79179     12150.68 
    6600    271.02955    233.50054   -3116.6846   -2713.5487    134.88483    12147.879 
    6650    263.86533    233.32036   -3110.6788   -2718.1992    427.13352    12144.985 
    6700    285.26474    233.98789   -3132.9297     -2708.62    -192.7484    12142.095 
    6750     282.3564    233.88077   -3129.3592   -2709.3754   -160.30729    12138.963 
    6800    287.49017    233.97903   -3132.6344   -2705.0145   -196.50951    12135.547 
    6850    296.38386    234.33501   -3144.5002   -2703.6517   -355.93374    12131.825 
    6900    282.94372    233.83531   -3127.8437   -2706.9863    145.60949    12127.776 
    6950    297.35471    234.34077   -3144.6922   -2702.3996   -207.12214    12123.568 
    7000    288.60379    233.89435   -3129.8118   -2700.5355    223.45789    12119.123 
    7050    289.06607    233.93016   -3131.0053   -2701.0414    301.17971    12114.614 
    7100    295.82127    234.15315   -3138.4385   -2698.4268    124.41846    12110.061 
    7150    273.09717    233.30388   -3110.1294   -2703.9181     884.9617    12105.456 
    7200    285.68297     233.6993   -3123.3099   -2698.3781    558.78472    12101.096 
    7250    284.28047    233.61073   -3120.3578   -2697.5121    657.58482    12096.889 
    7300    297.30449    234.19283    -3139.761   -2697.5431    158.10102    12092.827 
    7350    300.05219    234.31049   -3143.6831   -2697.3782    75.413969    12088.695 
    7400    283.98249    233.79793   -3126.5977   -2704.1953    691.79521    12084.455 
    7450    303.06069     234.4014   -3146.7132   -2695.9334    302.68325    12080.344 
    7500    290.46074    233.89389   -3129.7962   -2697.7579    723.05776    12076.271 
    7550    296.28204    234.11877   -3137.2923   -2696.5952    573.28516    12072.358 
    7600    293.88042    234.00578    -3133.526   -2696.4012    736.35313    12068.585 
    7650      290.048    233.84683   -3128.2276   -2696.8032    917.71008    12065.035 
    7700    303.17608      234.273   -3142.4334    -2691.482    632.87488    12061.755 
    7750    297.09009    234.01529   -3133.8431   -2691.9441    928.72398    12058.654 
    7800    304.94592    234.33016   -3144.3385   -2690.7546    773.29069    12055.849 
    7850    304.42013     234.1328     -3137.76   -2684.9582    921.48576    12053.298 
    7900    286.17207     233.3957     -3113.19   -2687.5307    1512.1845    12051.062 
    7950    293.92306    233.73983    -3124.661   -2687.4727     1309.841    12049.396 
    8000    301.26528      233.875   -3129.1666   -2681.0573    1138.4463    12048.257 
    8050    314.89624    239.34555   -3144.8518   -2676.4675    697.05712    12047.506 
    8100    304.83417    238.90874   -3130.2913   -2676.8736    1017.0639    12046.999 
    8150    312.15104    239.19867   -3139.9557   -2675.6547    815.86909    12046.795 
    8200    288.27589    238.30796   -3110.2652   -2681.4767    1646.6378    12046.894 
    8250    288.38636    238.44742    -3114.914   -2685.9612    1633.3298    12047.635 
    8300    304.62797    239.05076   -3135.0253   -2681.9142    1123.3381    12049.048 
    8350    301.96889    238.86829   -3128.9431   -2679.7872    1191.0503    12050.904 
    8400    289.75085    238.34836   -3111.6119   -2680.6295    1581.5035    12053.228 
    8450    299.82342     238.7135   -3123.7833   -2677.8187    1327.1543    12056.166 
    8500    300.67425    238.79016   -3126.3387   -2679.1085    1238.0417    12059.642 
    8550    304.80947     238.8693   -3128.9767   -2675.5958    1129.4417    12063.582 
    8600     307.4096    238.88691   -3129.5638   -2672.3153    1022.4929    12067.946 
    8650    312.10933    238.93615   -3131.2049   -2666.9659    836.01978    12072.648 
    8700    290.57395    238.27066   -3109.0222   -2676.8154    1430.2474    12077.644 
    8750    294.05257    238.35113   -3111.7042   -2674.3233    1319.5958     12083.18 
    8800    294.60856    238.34216   -3111.4053   -2673.1974    1263.4822    12089.245 
    8850    297.70832    238.43816   -3114.6054   -2671.7868    1167.5444    12095.787 
    8900    308.32838    238.77636   -3125.8787   -2667.2636    727.78985    12102.742 
    8950    307.53334    238.70899    -3123.633   -2666.2005    712.06449    12109.919 
    9000    304.06597    238.57691   -3119.2303   -2666.9552    787.93658    12117.279 
    9050    315.32536    238.96748   -3132.2494   -2663.2268    329.31134    12124.826 
    9100    309.26455    238.70133   -3123.3778   -2663.3703    469.71827    12132.398 
    9150     298.5798    238.26188   -3108.7294   -2664.6145    816.56381    12140.019 
    9200    298.40969    238.29248   -3109.7495   -2665.8877    650.68533    12147.856 
    9250    314.24418    238.75695   -3125.2315   -2657.8171    80.670605    12155.822 
    9300    295.48481    238.05245   -3101.7484   -2662.2371    600.73593      12163.7 
    9350    310.41652    238.58508   -3119.5027   -2657.7816    80.302792     12171.63 
    9400    294.15857    237.95805   -3098.6018   -2661.0632    476.14208    12179.456 
    9450    292.73172    237.99149   -3099.7162   -2664.2999    347.44367    12187.308 
    9500    299.43616    238.09308   -3103.1027   -2657.7141    172.01361    12195.148 
    9550    286.30915    237.67412   -3089.1373   -2663.2742     575.4785     12202.92 
    9600    288.90782      237.755   -3091.8334   -2662.1049    411.68939    12210.781 
    9650    296.96541     237.8988   -3096.6266    -2654.913    93.078814    12218.656 
    9700    305.53651    238.18115   -3106.0384    -2651.576    -323.0587    12226.373 
    9750    309.58006    238.36392   -3112.1308   -2651.6539   -565.21495    12233.704 
    9800    304.46994    238.08266   -3102.7555   -2649.8795   -308.23223    12240.529 
    9850    297.21385    237.78262   -3092.7539   -2650.6709    6.0670176    12246.978 
    9900     288.0611    237.41671   -3080.5571   -2652.0881    338.84161    12253.238 
    9950    297.90734    237.74719   -3091.5729   -2648.4583    14.078648    12259.438 
   10000    289.47591    237.42235   -3080.7452   -2650.1717    214.73868    12265.482 
   10050    291.93165    242.54846   -3084.9486   -2650.7224    5.6031715    12271.423 
   10100    295.99725    242.72534   -3090.8446   -2650.5712   -199.56717    12277.171 
   10150    290.05165    242.35037   -3078.3458   -2646.9159    109.80953    12282.651 
   10200    285.48092    242.05551    -3068.517   -2643.8857     163.7829    12288.001 
   10250      307.168    242.77298   -3092.4327   -2635.5436   -605.83387    12293.184 
   10300     297.5692    242.39222   -3079.7406    -2637.129    -283.3964     12297.91 
   10350    302.05282    242.54695   -3084.8985   -2635.6178   -369.12391    12302.256 
   10400    300.40406    242.48395   -3082.7985   -2635.9702   -309.52709    12306.217 
   10450    295.99224    242.25449   -3075.1497   -2634.8837   -117.69197    12309.842 
   10500     291.9022    242.11888   -3070.6292   -2636.4468   -3.2166108    12313.228 
   10550    297.48168    242.36155   -3078.7184   -2636.2369   -237.48644    12316.413 
   10600    296.08074    242.21284   -3073.7613   -2633.3636   -202.00803    12319.307 
   10650    293.14083    242.07946   -3069.3154   -2633.2906   -216.85544    12321.906 
   10700    304.00335    242.41013   -3080.3376   -2628.1557   -593.43517    12324.183 
   10750     300.2965    242.19169   -3073.0562   -2626.3879   -353.98663    12325.977 
   10800    292.01018    241.74455   -3058.1517   -2623.8087   -27.417107    12327.412 
   10850    314.59724    242.52137   -3084.0455    -2616.106   -729.27767    12328.585 
   10900    307.08005     242.2948   -3076.4933    -2619.735   -460.71065    12329.223 
   10950    311.00738    242.34633    -3078.211   -2615.6111   -373.35845    12329.395 
   11000    306.89248    242.18251   -3072.7504   -2616.2711   -111.42447    12329.196 
   11050    301.88851    241.93861   -3064.6204   -2615.5841    139.05371    12328.753 
   11100    294.02784    241.68567    -3056.189   -2618.8449    347.60598    12328.222 
   11150    302.30879    241.97827   -3065.9424    -2616.281    1.9222045    12327.677 
   11200    304.83524    241.97851   -3065.9502   -2612.5309   -39.532933     12326.97 
   11250    299.47068    241.72505   -3057.5015   -2612.0616     183.7427    12326.085 
   11300    294.89764    241.45086    -3048.362   -2609.7241    304.24323    12325.129 
   11350    317.40846    242.17118   -3072.3725   -2600.2515   -442.07732    12324.108 
   11400    317.55198    242.20486   -3073.4954   -2601.1609    -442.5773    12322.704 
   11450    296.10568    241.43521   -3047.8404   -2607.4056    301.70528    12320.919 
   11500    296.31836    241.50136   -3050.0452   -2609.2941    277.92471    12319.091 
   11550    305.43958    241.75394   -3058.4646   -2604.1463    39.449167    12317.233 
   11600    312.36843     242.0722   -3069.0734   -2604.4491   -147.66904    12315.217 
   11650    310.81546     241.9738   -3065.7933   -2603.4789    18.891718    12312.977 
   11700    307.61597    241.83856   -3061.2853   -2603.7298    161.83933    12310.575 
   11750    315.13218    242.12683   -3070.8945   -2602.1592   -54.178997    12308.056 
   11800    310.68446    242.01492   -3067.1642   -2605.0446     188.3139    12305.368 
   11850    302.51023    241.70378   -3056.7927   -2606.8316    484.13767    12302.628 
   11900    312.52587    242.01624   -3067.2081   -2602.3496    236.25877    12299.955 
   11950    313.68471    242.11528   -3070.5094   -2603.9272    294.40236    12297.258 
   12000    299.44451     241.5431   -3051.4367   -2606.0357    866.30797    12294.588 
   12050    303.16859    241.68001   -3056.0003     -2605.06    722.75449    12292.184 
   12100    320.04029    242.36277    -3078.759   -2602.7234    152.02942    12289.979 
   12150    305.37566    241.90072   -3063.3572   -2609.1341    658.92331    12287.749 
   12200    304.72463    241.82939   -3060.9795   -2607.7248    797.69034    12285.677 
   12250    297.40912    241.57317   -3052.4388   -2610.0653    974.39444    12283.905 
   12300    312.32734    242.07703   -3069.2343   -2604.6711    482.01017    12282.467 
   12350    310.07823     241.9376   -3064.5866   -2603.3688    520.63677    12281.153 
   12400    300.10409    241.60807   -3053.6022   -2607.2202    735.68888    12279.955 
   12450    315.42901    242.14531   -3071.5105   -2602.3337    221.54267    12278.935 
   12500    321.94226    242.37658   -3079.2194   -2600.3547    88.181446    12277.874 
   12550    311.27095    242.03086   -3067.6954   -2604.7035    467.50707    12276.716 
   12600    326.02655    242.67848   -3089.2826   -2604.3428   -101.45118    12275.578 
   12650    319.53981    242.46574   -3082.1912      -2606.9    39.472769    12274.249 
   12700    313.15051    242.22291   -3074.0971   -2608.3094    288.61125    12272.763 
   12750    304.49993    241.91556   -3063.8521   -2610.9316    644.00241    12271.269 
   12800    304.91869    241.95325   -3065.1084   -2611.5649    612.06391    12269.935 
   12850    308.90725    242.17111   -3072.3702   -2612.8941    447.55704    12268.775 
   12900    305.77853    242.04644   -3068.2148   -2613.3924    598.73236    12267.704 
   12950    301.46325    241.87907   -3062.6358    -2614.232    813.71803     12266.78 
   13000    290.42832    241.57908   -3052.6359   -2620.6457    1146.6716     12266.14 
   13050    293.34838    241.72706   -3057.5688   -2621.2353    968.21707     12265.93 
   13100    293.32925    241.80305   -3060.1016   -2623.7966    834.44841    12266.092 
   13150    308.51739    242.32693   -3077.5642   -2618.6679    315.56609    12266.517 
   13200     302.1829    242.07242   -3069.0806   -2619.6064    554.36988    12266.992 
   13250    312.88974    242.45196   -3081.7321   -2616.3324    253.60968    12267.552 
   13300    311.36427    242.47552   -3082.5173   -2619.3865    184.46713    12268.088 
   13350    302.53992    242.15406    -3071.802   -2621.7968    434.60853    12268.552 
   13400    292.42037    241.84461   -3061.4869   -2626.5338    738.66039    12269.088 
   13450    297.18226    241.92705   -3064.2348   -2622.1987    660.62645    12269.839 
   13500    303.23886    242.21734   -3073.9112   -2622.8664    395.94675    12270.758 
   13550     312.7576    242.56227   -3085.4091   -2620.2059   -18.402249    12271.702 
   13600     313.5011    242.65212    -3088.404   -2622.0948   -109.13382    12272.473 
   13650    305.44999    242.29564   -3076.5212   -2622.1875    181.06422    12273.036 
   13700    308.83772    242.39648   -3079.8827     -2620.51    107.77158    12273.485 
   13750    300.68116    242.11691   -3070.5638   -2623.3234    308.65725    12273.827 
   13800    303.84761    242.29662   -3076.5542   -2624.6039    178.38085    12274.144 
   13850    305.94727    242.45049    -3081.683   -2626.6096    35.537176    12274.372 
   13900    303.76611    242.38326   -3079.4418   -2627.6128    39.190436     12274.45 
   13950    303.08595    242.46888   -3082.2959   -2631.4785    45.905872    12274.379 
   14000    301.81925    242.41526   -3080.5088   -2631.5755    204.89531    12274.161 
   14050    302.01223    237.44072   -3081.3574   -2632.1371    242.63243    12273.866 
   14100    298.95243    237.37506   -3079.1686   -2634.4996    295.17081    12273.515 
   14150     290.8421    237.10622   -3070.2074   -2637.6018     473.1231    12273.153 
   14200    304.50724    237.54947   -3084.9825   -2632.0511    74.587405     12272.83 
   14250    298.10294    237.32015   -3077.3382   -2633.9327    286.12991    12272.399 
   14300     303.1409    237.53389    -3084.463   -2633.5639    109.84147    12271.907 
   14350     302.0954     237.5805   -3086.0166   -2636.6726     34.67205    12271.299 
   14400    299.42425    237.55756    -3085.252   -2639.8811    19.839519    12270.526 
   14450    304.71594    237.76474   -3092.1581   -2638.9162    -214.3252    12269.565 
   14500    314.49637    238.10085   -3103.3616    -2635.572   -568.17688     12268.29 
   14550    309.85895    237.99231   -3099.7438   -2638.8521   -408.07822    12266.542 
   14600    298.81406    237.58642   -3086.2139   -2641.7506   -27.857945    12264.405 
   14650    310.96361    238.00131   -3100.0437   -2637.5089   -412.99681    12262.018 
   14700    300.94559    237.80334   -3093.4446   -2645.8108   -191.19629     12259.25 
   14750     297.7748    237.74772   -3091.5906   -2648.6731   -44.435237    12256.196 
   14800    301.46299    237.80834   -3093.6113    -2645.208   -53.739413    12252.941 
   14850    293.44095    237.44612   -3081.5374   -2645.0662     269.8781    12249.503 
   14900    288.75441    237.36528   -3078.8426   -2649.3423    348.54928    12246.025 
   14950    298.31589    237.70339    -3090.113   -2646.3907    71.964776    12242.544 
   15000       290.63    237.49056   -3083.0187   -2650.7286     356.7575    12238.963 
   15050     288.6827    237.48148    -3082.716   -2653.3223    407.11441    12235.395 
   15100    305.40354    238.07262   -3102.4207   -2648.1561   -173.39632    12231.852 
   15150    301.25913    237.89558   -3096.5195   -2648.4194   -21.365441    12228.083 
   15200    298.74436    237.76006    -3092.002   -2647.6424    173.86485     12224.12 
   15250    300.34245    237.82436   -3094.1452   -2647.4086    200.30948    12220.083 
   15300    301.31339     237.9098   -3096.9934   -2648.8126    223.29129    12215.988 
   15350    296.67931    237.80464    -3093.488      -2652.2     414.0237    12211.847 
   15400    294.90528    237.73245   -3091.0818   -2652.4326    493.00294    12207.753 
   15450    298.40427    237.91691   -3097.2303   -2653.3765    470.52596    12203.758 
   15500    296.49413    237.90131   -3096.7105   -2655.6979     572.8725    12199.868 
   15550    313.11338    238.48757   -3116.2524     -2650.52     41.03523    12196.071 
   15600     302.3788    238.09477    -3103.159   -2653.3935    398.57117    12192.182 
   15650    301.55583    238.05247   -3101.7489   -2653.2074    408.83929    12188.329 
   15700     306.0147    238.19456   -3106.4854   -2651.3117    286.96506    12184.523 
   15750    300.90703    238.15988   -3105.3294    -2657.753    413.01676    12180.714 
   15800    304.37904    238.29922    -3109.974   -2657.2332    315.52043    12176.959 
   15850    302.08177    238.25056   -3108.3521   -2659.0283    381.55084    12173.216 
   15900    300.24335    238.15548   -3105.1826   -2658.5934    475.16712    12169.503 
   15950     298.8746    238.05266   -3101.7553    -2657.202    584.93456    12165.885 
   16000    301.48041    238.18928   -3106.3092   -2657.8799     527.8881    12162.417 
   16050    298.58171    243.17308   -3105.7693   -2661.6516    632.14616     12159.07 
   16100    286.07802    242.70179   -3090.0595   -2664.5401     1026.468    12155.928 
   16150    299.63065    243.28141   -3109.3804   -2663.7025     598.2242    12153.128 
   16200    289.84703    242.88704   -3096.2346   -2665.1091    981.57247    12150.556 
   16250    305.05519    243.48236   -3116.0787   -2662.3322    573.38035    12148.308 
   16300    296.42356    243.15719   -3105.2396    -2664.332    924.37348    12146.263 
   16350    294.52222    243.20914   -3106.9713   -2668.8918    972.99149    12144.538 
   16400    303.19606    243.40335   -3113.4449   -2662.4637    693.12056    12143.173 
   16450    307.54543    243.63218   -3121.0726   -2663.6221    588.12452    12142.013 
   16500    297.04411    243.24933    -3108.311   -2666.4804    952.14727    12141.044 
   16550    305.49119    243.60932   -3120.3108   -2665.9158    578.22634    12140.367 
   16600    294.26188     243.3018   -3110.0599   -2672.3676    808.04952    12139.867 
   16650     294.5159    243.30809   -3110.2697   -2672.1996     827.9977    12139.622 
   16700    290.94424    243.16082   -3105.3608   -2672.6033    870.84224    12139.663 
   16750    288.53693    243.07565   -3102.5216   -2673.3448    854.34415    12140.011 
   16800    300.08407    243.54012   -3118.0038   -2671.6515    427.65557    12140.629 
   16850     297.6357    243.48185   -3116.0616   -2673.3511    419.69592    12141.313 
   16900    286.03913    243.05494   -3101.8312   -2676.3697    740.95168    12142.075 
   16950    279.24744    242.80002   -3093.3341   -2677.9747    975.29301    12143.067 
   17000    275.89593    242.68927   -3089.6424   -2679.2681    1150.5509    12144.427 
   17050    294.87126    238.36603   -3112.2009   -2673.6023    529.44498    12146.189 
   17100    306.42772    238.81035   -3127.0116   -2671.2236    58.811359    12148.059 
   17150    298.71954    238.70507   -3123.5025   -2679.1798    107.12335    12149.798 
   17200    293.60749    238.52792   -3117.5972   -2680.8783    234.91269    12151.405 
   17250    286.46362    238.35937    -3111.979   -2685.8861    452.26018    12152.959 
   17300    287.85281    238.40656    -3113.552   -2685.3928     440.8109    12154.547 
   17350    285.22982    238.37896   -3112.6319   -2688.3742    468.57737    12156.194 
   17400    275.17584    238.15202   -3105.0673   -2695.7641    646.55281    12157.916 
   17450    279.17055    238.31437    -3110.479    -2695.234    321.25947    12159.795 
   17500    294.23581    238.88853   -3129.6176   -2691.9641   -279.75606    12161.651 
   17550    277.03221    238.35186   -3111.7287   -2699.6643    192.49458    12163.228 
   17600    274.69158    238.38064   -3112.6878   -2704.1049    203.81292    12164.704 
   17650    279.59154    238.54091   -3118.0302    -2702.159   -44.807783    12166.094 
   17700    282.54085    238.60762   -3120.2539   -2699.9958   -193.34398    12167.295 
   17750    293.12046    239.10174   -3136.7247   -2700.7303    -622.0943     12168.19 
   17800    288.30354     238.9319   -3131.0632   -2702.2335   -490.82434    12168.592 
   17850      275.472    238.61868   -3120.6228   -2710.8791   -125.25873    12168.561 
   17900    274.80426    238.66399    -3122.133   -2713.3825   -154.40509    12168.272 
   17950    280.76224    238.89715   -3129.9051   -2712.2926   -360.69385    12167.715 
   18000    268.09215    238.50323   -3116.7743   -2718.0076    14.319567    12166.826 
   18050    273.07929    233.61137    -3120.379   -2714.1942   -157.33283    12165.746 
   18100    273.13899    233.60321   -3120.1069   -2713.8334   -155.79579    12164.427 
   18150    281.58396    233.84678   -3128.2259   -2709.3911   -394.48804    12162.832 
   18200    283.43495    233.85042   -3128.3475   -2706.7594   -456.87198    12160.859 
   18250    283.36815    233.96616   -3132.2052   -2710.7166   -483.68845    12158.462 
   18300    285.20535    233.95598   -3131.8659   -2707.6446    -506.4543     12155.64 
   18350     291.0931    234.25886    -3141.962    -2708.983   -657.37045    12152.336 
   18400    284.67619    234.06026   -3135.3419   -2711.9076   -394.43022    12148.539 
   18450    278.87179    233.94737    -3131.579   -2716.7784   -204.17203    12144.366 
   18500    278.15537    233.86998   -3128.9994   -2715.2644   -47.679223     12139.92 
   18550    272.58417    233.70636   -3123.5452   -2718.0969    188.35432    12135.316 
   18600    290.98142    234.31401   -3143.8002   -2710.9874   -281.43176    12130.607 
   18650    287.23191    234.15655   -3138.5515   -2711.3158    -54.31697     12125.63 
   18700    278.83103     233.8151   -3127.1701   -2712.4301     302.6079    12120.466 
   18750    282.37348    234.03579   -3134.5264   -2714.5173    195.63337    12115.281 
   18800    276.92743    233.75904   -3125.3013   -2713.3927    494.64057    12110.071 
   18850    268.53666    233.51818   -3117.2727   -2717.8447    803.27442    12104.978 
   18900    281.97219    233.91667   -3130.5557   -2711.1435    448.08335    12100.125 
   18950    287.59214    234.10666   -3136.8887   -2709.1172    405.10576    12095.372 
   19000    283.05698    233.88957   -3129.6522   -2708.6264    670.65192    12090.712 
   19050    283.95842    228.91447   -3130.4823   -2708.1157    720.77364    12086.234 
   19100    277.60378    228.65881   -3121.9605   -2709.0459    968.43398    12081.982 
   19150    293.38249    229.10976    -3136.992   -2700.6077    596.95826    12078.039 
   19200    289.98545    228.98512   -3132.8375   -2701.5061     789.3918    12074.284 
   19250    306.84926    229.49102   -3149.7006   -2693.2856    435.78812    12070.735 
   19300     304.9782    229.42574   -3147.5247   -2693.8927    599.23869    12067.261 
   19350    302.19219    229.23777   -3141.2591   -2691.7711    727.63058     12063.91 
   19400     306.8059    229.37897   -3145.9656   -2689.6151    627.80519    12060.737 
   19450     298.6511    229.01682    -3133.894   -2689.6731    986.22983    12057.735 
   19500    298.39574    228.97713   -3132.5711   -2688.7301    1046.8984    12055.063 
   19550    302.98607    229.12356   -3137.4519   -2686.7831    995.97824    12052.751 
   19600    287.13407    228.49346   -3116.4486   -2689.3584    1550.7512    12050.818 
   19650    304.70275    229.09632    -3136.544   -2683.3218    1057.2918    12049.437 
   19700    309.26644    229.18679   -3139.5597   -2679.5493    944.39599    12048.441 
   19750    301.52675    228.92826   -3130.9421   -2682.4439    1123.8342    12047.754 
   19800    309.23711    229.17501   -3139.1669   -2679.2002    874.18317    12047.425 
   19850    309.74407    229.23768    -3141.256   -2680.5352    929.40641    12047.364 
   19900    301.48834     228.8711   -3129.0368   -2680.5957    1264.5434    12047.595 
   19950    305.73393    228.99561   -3133.1869   -2678.4309    1076.4617    12048.264 
   20000     304.4514    229.01584   -3133.8613   -2681.0129    1060.4809    12049.304 
   20050    310.36719     224.1374   -3137.9133   -2676.2656    937.59141    12050.666 
   20100    302.06411    223.86997   -3128.9991   -2679.7016    1167.8651      12052.3 
   20150    296.05394    223.57502   -3119.1674   -2678.8096    1478.1037    12054.328 
   20200    305.80727    223.96221   -3132.0737   -2677.2086    1115.4703    12056.884 
   20250    314.27669    224.20519   -3140.1731   -2672.7104    800.55877    12059.782 
   20300    309.74326    224.04096   -3134.6985   -2673.9789    962.53808    12062.867 
   20350    307.95725    223.98272   -3132.7575   -2674.6944     956.7025    12066.212 
   20400    315.53598    224.25742   -3141.9139    -2672.578    607.35373    12069.799 
   20450    313.39484    224.19079   -3139.6931   -2673.5421    614.65633    12073.475 
   20500    311.91801    224.03442   -3134.4807   -2670.5263    660.17492    12077.225 
   20550    295.74671    223.53313    -3117.771   -2677.8702      1082.66    12081.083 
   20600    302.12551    223.77871   -3125.9572   -2676.5684    953.08852    12085.218 
   20650     306.5025     223.9027   -3130.0899   -2674.1907    834.56948     12089.61 
   20700    308.38335    223.91287   -3130.4289    -2671.732    750.36796     12094.19 
   20750    315.72853    224.17326   -3139.1086   -2669.4863    434.29176    12098.901 
   20800    308.99011    223.97031   -3132.3438   -2672.7444    502.83808    12103.599 
   20850    309.07566    223.96501   -3132.1671   -2672.4405    515.97904    12108.284 
   20900     307.9935     224.0093   -3133.6435   -2675.5265    557.06642    12112.966 
   20950    308.61442    223.93016   -3131.0055   -2671.9649    544.74179    12117.689 
   21000    302.06577    223.76693   -3125.5644   -2676.2644    615.20215    12122.457 
   21050    296.84075    223.61692   -3120.5639   -2679.0358    704.38737    12127.293 
   21100    300.84435    223.73787   -3124.5956   -2677.1124    502.77985    12132.225 
   21150    300.27685    223.69474   -3123.1579   -2676.5188    400.85919    12137.174 
   21200    305.31953    223.96847   -3132.2822   -2678.1426    55.356996    12142.057 
   21250    294.81196    223.59492   -3119.8305     -2681.32     317.0087    12146.741 
   21300    288.94928    223.27324    -3109.108   -2679.3178    570.69765    12151.336 
   21350    298.38236    223.61644   -3120.5478   -2676.7267    319.06546    12155.947 
   21400    306.60276    223.87193   -3129.0643   -2673.0159    43.334228    12160.479 
   21450    299.95914     223.6332   -3121.1068   -2674.9403    95.617281    12164.804 
   21500    309.90637    224.03419   -3134.4729   -2673.5107    -332.1984    12168.882 
   21550    293.98309    223.48815   -3116.2715    -2678.994   -13.254605    12172.572 
   21600    301.84145    223.68634   -3122.8781   -2673.9118   -264.41119    12175.948 
   21650    298.38021    223.58331   -3119.4435   -2675.6256    -196.0793    12178.948 
   21700    295.48457    223.53884   -3117.9614   -2678.4505   -132.65381    12181.581 
   21750    291.74837    223.45428   -3115.1426    -2681.189   -45.304204    12183.893 
   21800    297.16063    223.62196    -3120.732   -2678.7281   -266.89977    12185.917 
   21850    302.45855    223.90069   -3130.0229   -2680.1388    -514.0654    12187.553 
   21900    303.48775    223.88478   -3129.4926   -2678.0776   -423.32257    12188.681 
   21950    297.91336    223.70167    -3123.389   -2680.2654   -231.98784    12189.344 
   22000    293.42872    223.56701   -3118.9005   -2682.4475   -151.60372    12189.645 
   22050    289.02893    223.46274   -3115.4245   -2685.5159   -91.883557    12189.642 
   22100    296.33097    223.73522   -3124.5075   -2683.7376   -389.16289    12189.354 
   22150    293.32149    223.65738   -3121.9128   -2685.6193   -345.75374    12188.651 
   22200    296.73191    223.84488   -3128.1627   -2686.7965   -485.00446    12187.516 
   22250    292.58153    223.70286   -3123.4288    -2688.236   -385.69356    12185.911 
   22300    292.85362    223.70369   -3123.4563   -2687.8587   -399.31847    12183.885 
   22350    311.01996    224.24779    -3141.593   -2678.9743   -867.61806    12181.402 
   22400    287.77848    223.62016   -3120.6719   -2692.6232   -161.69593    12178.304 
   22450    282.28343     223.4958   -3116.5267   -2696.6515    34.894678    12174.888 
   22500    292.68359    223.88813   -3129.6042   -2694.2595    -307.2766    12171.275 
   22550    299.76052    224.09725   -3136.5751   -2690.7041   -476.33482    12167.314 
   22600    305.41998     224.3018   -3143.3932   -2689.1041   -580.52503    12162.903 
   22650    294.27331    223.98455   -3132.8184   -2695.1092   -263.23224    12158.015 
   22700    299.68669    224.14533   -3138.1775   -2692.4163   -381.59315    12152.787 
   22750    299.93749    224.13787   -3137.9289   -2691.7946   -301.27679    12147.195 
   22800    292.74599    223.97027   -3132.3425    -2696.905    20.124734    12141.275 
   22850    300.42675    224.35261   -3145.0869   -2698.2249   -98.651647    12135.162 
   22900    294.52363    224.14981   -3138.3271   -2700.2455    146.68936    12128.854 
   22950    286.90469    223.95006   -3131.6687   -2704.9197     338.1923    12122.464 
   23000    295.51745    224.25681   -3141.8936   -2702.3338    58.142299     12116.06 
   23050    301.56609    219.42958   -3147.6527    -2699.096   -11.601069    12109.526 
   23100    299.07066    219.41221   -3147.0737   -2702.2288    97.150293    12102.822 
   23150    297.05772     219.4209   -3147.3635   -2705.5126    18.290359     12095.98 
   23200    288.14449    219.22357   -3140.7856   -2712.1925    312.63122    12088.997 
   23250    293.23371    219.45873   -3148.6242   -2712.4613    285.95628    12081.988 
   23300    299.08917    219.70045   -3156.6817   -2711.8092    81.486283    12074.955 
   23350    296.10505    219.67053   -3155.6843   -2715.2505    117.53506    12067.813 
   23400    291.87552    219.51954   -3150.6515   -2716.5087    268.15207    12060.574 
   23450     296.9879    219.72464   -3157.4881   -2715.7411    67.298558    12053.293 
   23500    287.53061    219.44094   -3148.0314   -2720.3514    365.54255    12045.912 
   23550    283.42312    219.43779   -3147.9264    -2726.356    520.84608    12038.559 
   23600    294.23813    219.78235   -3159.4115   -2721.7546    259.01413    12031.305 
   23650    294.33031    219.73647   -3157.8823   -2720.0883    319.35418    12024.049 
   23700    295.77806    219.86367   -3162.1223   -2722.1749     311.2376    12016.793 
   23750    301.29736    220.08392   -3169.4639   -2721.3069    256.28834    12009.533 
   23800    290.62515    219.83971   -3161.3236   -2729.0407    709.93242    12002.283 
   23850    288.64848    219.85617   -3161.8723   -2732.5296    872.04951    11995.236 
   23900    294.87256     220.0677   -3168.9233   -2730.3227    700.12242    11988.487 
   23950    298.18721    220.22786   -3174.2619    -2730.731    619.14817     11981.94 
   24000    289.82277    219.99954   -3166.6515   -2735.5621    932.16996    11975.568 
   24050    287.32523    219.97216   -3165.7386   -2738.3641    1025.7645    11969.513 
   24100    300.82045    220.42791   -3180.9302   -2733.4826    680.46179    11963.798 
   24150    293.88903    220.32415   -3177.4718   -2740.3341    875.29899    11958.308 
   24200    289.38212     220.0736     -3169.12    -2738.686    1181.5702    11953.097 
   24250    293.18768    220.22639   -3174.2129   -2738.1185    1167.4773    11948.308 
   24300    289.33353    220.04868   -3168.2894   -2737.9276    1291.1284    11943.963 
   24350    292.70222    220.23514   -3174.5046   -2739.1322    1214.8081      11940.1 
   24400    310.61178    220.87195   -3195.7316   -2733.7201    728.52724    11936.657 
   24450    300.23969    220.57366   -3185.7888    -2739.205    944.54942    11933.441 
   24500    301.66023    220.57601   -3185.8669   -2737.1701    909.54943    11930.494 
   24550    270.26187    219.56893   -3152.2977   -2750.3037    1844.9408    11927.876 
   24600    283.15315    219.98316   -3166.1053   -2744.9365    1599.2032    11925.945 
   24650    288.22664    220.16792   -3172.2639   -2743.5486    1471.4345    11924.659 
   24700    298.07016    220.44829   -3181.6096   -2738.2528    1130.0612    11923.916 
   24750    292.06298    220.24059   -3174.6862   -2740.2647    1237.3456    11923.569 
   24800     282.4949    219.98627   -3166.2091   -2746.0194    1481.9078    11923.649 
   24850    287.10462    220.12273   -3170.7577   -2743.7113    1356.0411    11924.257 
   24900    290.49734     220.3044   -3176.8134   -2744.7206      1248.97    11925.349 
   24950    303.83974    220.71649   -3190.5497   -2738.6111    806.25481     11926.83 
   25000    301.40397    220.57159   -3185.7196   -2737.4041    838.35302    11928.495 
   25050    290.29961       215.23   -3174.3334   -2742.5347    1135.4788    11930.362 
   25100    293.69275    215.45826    -3181.942   -2745.0963    1001.1346    11932.534 
   25150    299.39795    215.67676   -3189.2252   -2743.8935    817.19291    11934.947 
   25200    288.92009    215.28931   -3176.3103   -2746.5636    1108.4377     11937.55 
   25250    299.26751    215.56795   -3185.5984   -2740.4607    844.74837    11940.432 
   25300    291.40573    215.25013   -3175.0042   -2741.5603    1118.5724    11943.517 
   25350    291.75475     215.2975   -3176.5833   -2742.6202    1065.3182    11946.886 
   25400     293.5459    215.36107   -3178.7024   -2742.0751    891.97071    11950.528 
   25450    294.71408    215.32432   -3177.4774   -2739.1125    819.34125    11954.359 
   25500    303.28116    215.57819   -3185.9395   -2734.8318    522.26505    11958.326 
   25550    308.17088    215.66624   -3188.8745   -2730.4937     336.2288    11962.277 
   25600    285.26985    214.99495   -3166.4984   -2742.1811    973.94367     11966.16 
   25650    288.62489    215.08859   -3169.6196   -2740.3119    853.61443    11970.239 
   25700    305.90719    215.62779   -3187.5931   -2732.5794    269.61926    11974.455 
   25750    299.72977    215.30815   -3176.9382   -2731.1129     486.7557    11978.571 
   25800    299.88533    215.34437   -3178.1455   -2732.0888    496.47487    11982.636 
   25850    286.09297    214.89439   -3163.1465   -2737.6049    855.31056    11986.703 
   25900    289.91353     215.0641   -3168.8032   -2737.5788    689.29377    11990.909 
   25950    298.44434    215.23071   -3174.3571   -2730.4438    436.73254    11995.201 
   26000    295.67451    215.12619    -3170.873   -2731.0795    470.18506    11999.449 
   26050    302.29259    215.26101   -3175.3669   -2725.7296    254.56974     12003.63 
   26100    310.68182    215.51565    -3183.855   -2721.7393    7.4448982     12007.65 
   26150    287.48244    214.71175   -3157.0583   -2729.4499    732.64802    12011.421 
   26200    290.50742    214.77773   -3159.2578     -2727.15    608.42612    12015.237 
   26250     304.4054     215.1929   -3173.0966   -2720.3166    250.22469    12019.097 
   26300    295.42483    214.81781   -3160.5935   -2721.1715    593.21852    12022.851 
   26350    308.01482    215.26426   -3175.4752   -2717.3265    178.25035    12026.578 
   26400     307.9358    215.11264   -3170.4215   -2712.3903    146.81374    12030.135 
   26450    292.80242    214.54836   -3151.6121   -2716.0907    580.65986    12033.505 
   26500    300.17559    214.67437   -3155.8124   -2709.3239    334.29654    12036.864 
   26550    304.80781    214.83946   -3161.3154   -2707.9369    148.16409    12040.112 
   26600    292.41084    214.42027   -3147.3424   -2712.4035    506.00417    12043.203 
   26650    309.02491    214.83398   -3161.1328   -2701.4816    153.18935    12046.236 
   26700    303.53972    214.66529   -3155.5098   -2704.0174    367.13147    12049.082 
   26750    314.47718     214.9845   -3166.1501   -2698.3892    103.69489    12051.817 
   26800    320.09557    215.09161   -3169.7203   -2693.6024    24.793978    12054.333 
   26850    293.59635    214.15298   -3138.4328   -2701.7305    781.10259    12056.611 
   26900    296.25617    214.25614   -3141.8715   -2701.2129    595.29973    12058.979 
   26950    303.43601    214.47146   -3149.0487   -2697.7106    365.25656    12061.394 
   27000    304.80377    214.39768   -3146.5894   -2693.2169     395.0915    12063.746 
   27050    314.27373    214.58843   -3152.9475   -2685.4891    133.63663    12066.018 
   27100    319.08727    214.77258    -3159.086   -2684.4678    83.894145    12068.062 
   27150    309.18963    214.43784    -3147.928   -2688.0319     507.4005    12069.899 
   27200    312.72847     214.5079   -3150.2634   -2685.1035    411.42603    12071.707 
   27250    306.42004    214.30297   -3143.4324   -2687.6558    488.91574    12073.473 
   27300    310.79117    214.41764   -3147.2546   -2684.9762     375.3107    12075.205 
   27350    308.15238    214.26023   -3142.0076   -2683.6542    553.45302    12076.879 
   27400    302.66409     214.1408   -3138.0267   -2687.8368    735.82109    12078.573 
   27450    311.11716    214.38438   -3146.1459   -2683.3827    376.49936     12080.36 
   27500    320.45261    214.69362    -3156.454    -2679.805   -5.5071301    12082.065 
   27550    310.23337    214.46532   -3148.8441   -2687.3954    257.81222    12083.507 
   27600    301.41283    213.99246   -3133.0821   -2684.7533    598.92512    12084.818 
   27650    315.80111     214.4019   -3146.7301   -2676.9999    190.78552    12086.137 
   27700    311.43024    214.40471   -3146.8237   -2683.5948     201.2499    12087.318 
   27750    306.03854    214.21923   -3140.6409   -2685.4318    381.14055    12088.341 
   27800    298.92351     213.9799   -3132.6634   -2688.0374    641.40204    12089.303 
   27850    303.92082    214.11844   -3137.2813   -2685.2222    535.32743    12090.319 
   27900    305.76033    214.16067   -3138.6891   -2683.8938    466.76042    12091.354 
   27950    304.28884    214.14566   -3138.1887   -2685.5821    458.47214    12092.365 
   28000    305.37714     214.1335   -3137.7834    -2683.558     355.6447    12093.354 
   28050    315.56966    219.40065   -3146.6882   -2677.3022    84.605873    12094.248 
   28100    301.15089    218.92653   -3130.8842   -2682.9451    557.14305    12094.957 
   28150    297.92196    218.91185   -3130.3949   -2687.2586    512.13618    12095.681 
   28200    313.79178    219.36972   -3145.6572   -2678.9157   -98.863987    12096.399 
   28250    314.66339    219.38791   -3146.2638   -2678.2259   -189.73138    12096.843 
   28300    311.42766    219.28234   -3142.7446   -2679.5196   -40.384473    12096.942 
   28350    311.64024    219.34623   -3144.8744   -2681.3331     69.08008    12096.753 
   28400    308.74473    219.31023   -3143.6744     -2684.44    154.88101    12096.357 
   28450    313.53471    219.52241   -3150.7468   -2684.3877   -75.555479     12095.78 
   28500    289.82849    218.82631   -3127.5436   -2696.4457      515.931    12094.967 
   28550    287.53563     218.7504   -3125.0132   -2697.3258    624.85939    12094.178 
   28600    305.30815    219.32694   -3144.2314   -2690.1087    174.12724    12093.472 
   28650    295.87101    219.00541   -3133.5137    -2693.428    536.08057    12092.672 
   28700    305.54733    219.31012   -3143.6706   -2689.1921    282.51593    12091.893 
   28750    296.08287     219.0505   -3135.0168    -2694.616    498.48609    12091.059 
   28800     288.9503    218.79852   -3126.6172   -2696.8255     687.9174    12090.265 
   28850     300.9184    219.19496   -3139.8321   -2692.2388    308.82105    12089.592 
   28900    305.90185    219.40383   -3146.7944   -2691.7886    203.05721    12088.859 
   28950    307.74736    219.51544   -3150.5147   -2692.7638    186.57708    12088.001 
   29000    292.68997    218.97363   -3132.4542   -2697.1001     594.3209    12087.041 
   29050    308.14481    219.58458   -3152.8193   -2694.4773    113.28882    12086.103 
   29100    304.64102    219.36898   -3145.6327   -2692.5023      245.568    12085.032 
   29150    302.59473    219.32008   -3144.0027    -2693.916    288.69078    12083.839 
   29200    301.52665    219.34299   -3144.7662   -2696.2682    260.56479    12082.571 
   29250    304.83878    219.45394   -3148.4646     -2695.04    195.64988    12081.209 
   29300    298.99161    219.23091   -3141.0303   -2696.3029    485.74224    12079.743 
   29350    300.33007    219.32933   -3144.3108   -2697.5926    546.67824    12078.282 
   29400    294.11076    219.13733   -3137.9111   -2700.4437     722.0533    12076.905 
   29450    300.59057    219.35142   -3145.0472   -2697.9416    500.76774    12075.666 
   29500    298.72601    219.37633   -3145.8777   -2701.5454     462.4765    12074.469 
   29550    301.98189    219.44662   -3148.2207   -2699.0455    382.32926    12073.268 
   29600    307.81267    219.60592   -3153.5306   -2695.6825    242.86845    12072.021 
   29650    310.00391    219.77023   -3159.0076   -2697.9003    179.64118    12070.686 
   29700    294.35206    219.29852   -3143.2841   -2705.4578    625.51585    12069.235 
   29750    284.13676    219.03438   -3134.4794   -2711.8475    838.05283    12067.881 
   29800    301.12156    219.51061   -3150.3537   -2702.4582    318.00419    12066.722 
   29850    300.44546    219.57743   -3152.5812   -2705.6913    231.38602    12065.522 
   29900    304.72543    219.74785   -3158.2618   -2705.0058    15.561926    12064.203 
   29950    295.93789    219.44154   -3148.0513   -2707.8661    249.79136    12062.694 
   30000    303.66174    219.69848   -3156.6161   -2704.9423    126.03574     12061.06 
   30050    293.59383    219.44669   -3148.2231   -2711.5245    419.35679      12059.3 
   30100    298.17741    219.54296    -3151.432   -2707.9157    351.11631    12057.515 
   30150    304.28282    219.76975   -3158.9916    -2706.394    162.40635    12055.695 
   30200    310.29932     219.8902   -3163.0066   -2701.4599    46.544528    12053.736 
   30250    293.82383    219.48357   -3149.4524   -2712.4117    473.92773    12051.598 
   30300    287.37648    219.31715   -3143.9051   -2716.4544    548.29544    12049.478 
   30350    300.75734    219.76868   -3158.9561   -2711.6024    98.088718    12047.403 
   30400    298.60252    219.71937   -3157.3123   -2713.1636    139.27813    12045.178 
   30450    304.04139    219.98906   -3166.3019   -2714.0634    66.134038    12042.785 
   30500     283.6463    219.41587   -3147.1956   -2725.2933     639.7152    12040.248 
   30550    295.00474    219.77513   -3159.1709   -2720.3737    350.77997    12037.774 
   30600    297.05942    219.82569   -3160.8562   -2719.0028    246.14498    12035.286 
   30650    301.63498    220.03424   -3167.8079   -2719.1487    19.723259    12032.697 
   30700    292.56371    219.79981   -3159.9938   -2724.8275    286.42639    12029.922 
   30750    294.49835    219.87202   -3162.4007   -2724.3567    290.63309    12027.063 
   30800     281.2245    219.55942   -3151.9808   -2733.6807    619.78104    12024.165 
   30850    292.97348    220.02178   -3167.3927   -2731.6169    336.97453    12021.328 
   30900    298.57485    220.31106   -3177.0353   -2732.9278    89.438464    12018.462 
   30950    298.85146    220.38543   -3179.5142   -2734.9953    4.4381259    12015.436 
   31000    287.82352    219.98021   -3166.0071   -2737.8914    324.65405     12012.21 
   31050    285.40358     224.9319   -3164.3967   -2739.8805    307.93718    12008.921 
   31100    282.25579    224.85367   -3161.7891    -2741.955    344.33387    12005.609 
   31150     282.2848     224.9996   -3166.6534   -2746.7762    304.66936    12002.284 
   31200    283.95344    225.15121   -3171.7068   -2749.3476    257.51201    11998.919 
   31250    271.47136    224.79908   -3159.9693   -2756.1762    576.72496    11995.523 
   31300    289.43718    225.44649   -3181.5498   -2751.0339  0.097927372    11992.189 
   31350    281.33361    225.24606   -3174.8687   -2756.4063    243.54589    11988.703 
   31400    294.32897    225.75653   -3191.8842   -2754.0922   -97.066526    11985.107 
   31450    282.70581    225.39174   -3179.7245   -2759.2211    327.60906    11981.323 
   31500    278.89466    225.23555   -3174.5184   -2759.6838    576.67404    11977.506 
   31550    287.58535    225.56535   -3185.5118   -2757.7504    295.93331    11973.786 
   31600    290.89048    225.59829   -3186.6098   -2753.9323     292.3225     11970.04 
   31650    274.57062    225.18603   -3172.8676   -2764.4646    789.39309    11966.277 
   31700    274.82168    225.19791   -3173.2636   -2764.4872    728.30334    11962.705 
   31750    285.40965    225.44209   -3181.4029   -2756.8777    418.21387    11959.317 
   31800    293.61836    225.81783   -3193.9277   -2757.1926      181.295    11955.955 
   31850    282.69196    225.54956   -3184.9852   -2764.5023    500.67996    11952.528 
   31900    289.41108    225.74457   -3191.4858   -2761.0087    404.73364    11949.147 
   31950     296.0491    225.88027   -3196.0091   -2755.6585    325.98335    11945.789 
   32000    279.60874    225.37407   -3179.1357   -2763.2388    888.32696    11942.426 
   32050    270.82683    225.07867   -3169.2889   -2766.4545    1137.7994    11939.325 
   32100    301.61691    226.18657   -3206.2189   -2757.5866    148.66633    11936.553 
   32150    283.36207     225.6472     -3188.24   -2766.7604    626.34829    11933.755 
   32200    288.01899    225.75008   -3191.6693   -2763.2629    541.81159    11931.034 
   32250    288.03903    225.63635   -3187.8784   -2759.4422    595.12059    11928.419 
   32300    282.22964    225.48331   -3182.7769   -2762.9817    841.88059     11925.92 
   32350    270.70029    225.00661   -3166.8868   -2764.2407     1359.617    11923.696 
   32400    294.62824    225.80175   -3193.3918   -2755.1547    715.77685    11921.914 
   32450    284.22252    225.43699   -3181.2331   -2758.4736    1053.7199    11920.358 
   32500    280.66429     225.3762   -3179.2065   -2761.7397    1184.6994    11919.133 
   32550    289.31794    225.69565   -3189.8548   -2759.5163    845.81174    11918.317 
   32600    309.30464    226.27649   -3209.2165   -2749.1492    261.50063    11917.714 
   32650    279.86125     225.1954   -3173.1801   -2756.9077    1248.0898    11917.125 
   32700    276.97185    225.04965   -3168.3218   -2756.3471    1396.5698    11916.937 
   32750    298.27834    225.73151   -3191.0504    -2747.384    681.03308    11917.225 
   32800    293.32852    225.58055   -3186.0183   -2749.7143    820.97847    11917.701 
   32850    276.31267    225.08546   -3169.5153   -2758.5212    1396.0424    11918.403 
   32900    283.75516    225.29924   -3176.6412   -2754.5769    1215.6026    11919.583 
   32950    302.09132     225.8798   -3195.9934   -2746.6554    686.82106    11921.157 
   33000    293.09581    225.56056   -3185.3519   -2749.3941     1027.126    11922.915 
   33050    299.21981    220.77728   -3192.5758   -2747.5091    934.42686     11924.96 
   33100    281.02589    220.13493   -3171.1645   -2753.1598    1519.3775    11927.311 
   33150     282.6223    220.12986   -3170.9952   -2750.6159    1447.7577    11930.186 
   33200    287.97621    220.33337    -3177.779   -2749.4362    1159.8737    11933.576 
   33250    299.48198    220.64675    -3188.225   -2742.7682     782.6419    11937.333 
   33300     305.9857    220.78066   -3192.6887   -2737.5581     568.8126    11941.261 
   33350    303.41415    220.63087   -3187.6957   -2736.3902    604.88368    11945.253 
   33400     305.2971    220.67668   -3189.2227   -2735.1164    482.76961    11949.303 
   33450    301.98122    220.51422   -3183.8074   -2734.6332    533.06342    11953.371 
   33500    305.14651    220.68042   -3189.3473    -2735.465    412.38066     11957.45 
   33550    293.30497    220.26158    -3175.386   -2739.1171    750.70284    11961.514 
   33600    285.97867    220.01644   -3167.2147   -2741.8431    880.09534    11965.715 
   33650    297.56835    220.31409   -3177.1364    -2734.526     544.3663    11970.116 
   33700    281.58677    219.78033   -3159.3444   -2740.5054    1007.8739    11974.616 
   33750    290.01073    220.01664   -3167.2212   -2735.8522    744.17259     11979.36 
   33800    291.05088    220.13185   -3171.0617   -2738.1455     571.1126    11984.256 
   33850    290.95817    220.03218   -3167.7392    -2734.961    551.25748    11989.201 
   33900    294.59113     220.1684   -3172.2799   -2734.0979     343.3213    11994.179 
   33950    301.85727    220.39121   -3179.7071   -2730.7173    108.86036    11999.101 
   34000    293.62443    220.07537   -3169.1791    -2732.435    374.42743     12003.85 
   34050    290.80206    219.89508   -3163.1695   -2730.6235    438.16445    12008.536 
   34100    297.09456    220.09424   -3169.8079   -2727.9023     238.3067    12013.194 
   34150    291.11068    219.90796   -3163.5987   -2730.5937    344.96487    12017.743 
   34200    303.14215    220.39365   -3179.7883   -2728.8874   -71.355892    12022.195 
   34250    302.92007    220.31225    -3177.075   -2726.5044    28.091366    12026.377 
   34300    292.91197    219.99561   -3166.5204   -2730.8361    280.61283    12030.327 
   34350    301.16349    220.11059   -3170.3529   -2722.3951    3.0279384    12034.145 
   34400    296.13131    219.88202   -3162.7338    -2722.261     208.7172    12037.736 
   34450    279.37661     219.3589   -3145.2966    -2729.745    756.91917    12041.219 
   34500    289.79182    219.68561   -3156.1871   -2725.1437     438.2259    12044.834 
   34550    296.76906    219.86211   -3162.0703   -2720.6488    118.39106    12048.445 
   34600    294.15073     219.8158   -3160.5266   -2722.9997    115.32942    12051.885 
   34650    298.83208    220.01566   -3167.1888   -2722.6987   -98.838079     12055.14 
   34700    302.45546    220.08198   -3169.3993   -2719.5197   -193.47238    12058.091 
   34750    286.12497    219.44626   -3148.2085   -2722.6193    366.39002    12060.727 
   34800    291.51524    219.64237   -3154.7458    -2721.139    149.14956    12063.281 
   34850    304.59952    220.00519   -3166.8397    -2713.771   -343.30718    12065.665 
   34900    303.26303    219.86165   -3162.0551   -2710.9743   -280.13179    12067.649 
   34950    285.61564    219.19882   -3139.9608   -2715.1291    269.30542    12069.266 
   35000    294.35564    219.61022   -3153.6739   -2715.8422    30.497464    12070.731 
   35050    292.84769    219.61076   -3153.6918   -2718.1031    61.260633    12071.993 
   35100    299.77469    219.76811   -3158.9371    -2713.045   -165.74668    12073.039 
   35150    307.72415    219.95473   -3165.1575   -2707.4412   -331.80223    12073.755 
   35200    287.09689    219.40283   -3146.7608    -2719.726    296.86168    12074.089 
   35250    286.05453    219.28955   -3142.9851   -2717.5006    401.36501    12074.323 
   35300    299.61675    219.62324    -3154.108   -2708.4508    41.591562    12074.522 
   35350    304.82332    219.78657   -3159.5522   -2706.1506   -61.330681    12074.514 
   35400    298.85983    219.55049   -3151.6831   -2707.1518    141.71861     12074.25 
   35450     303.0447     219.6941   -3156.4699   -2705.7138   -15.676919    12073.793 
   35500    297.90541    219.50627   -3150.2091   -2707.0974    160.30953    12073.115 
   35550    293.70853     219.3378   -3144.5934   -2707.7242    391.61146    12072.291 
   35600    295.95243    219.39103   -3146.3676   -2706.1608    363.20829    12071.428 
   35650    293.02615    219.31085    -3143.695   -2707.8408    403.49365    12070.517 
   35700    298.23179    219.47624    -3149.208   -2705.6108     219.9413    12069.583 
   35750    301.95289    219.59621    -3153.207    -2704.075     126.9493    12068.548 
   35800      307.813    219.88215   -3162.7384   -2704.8899    28.763462    12067.326 
   35850    299.39519    219.47388   -3149.1293   -2703.8016    370.90387    12065.922 
   35900    303.52869    219.66591   -3155.5303   -2704.0544    284.83392     12064.46 
   35950    309.17976    219.82937   -3160.9791   -2701.0976    109.74881    12062.905 
   36000    295.81585    219.34211   -3144.7371   -2704.7334     499.7736    12061.191 
   36050    305.17826    224.56426   -3152.1421   -2698.2125    302.38415    12059.477 
   36100    309.61633    224.61902   -3153.9675   -2693.4367    215.08329    12057.706 
   36150    291.97801    224.04119   -3134.7065   -2700.4113    772.50669    12055.866 
   36200    293.03422    224.10636   -3136.8788   -2701.0126    808.17417    12054.184 
   36250    292.36228    224.10121   -3136.7068   -2701.8401    820.53457    12052.722 
   36300    304.10282    224.48974    -3149.658   -2697.3281    525.18118    12051.454 
   36350    295.38511    224.17625   -3139.2084   -2699.8454    872.53635     12050.29 
   36400    290.51949     223.9716   -3132.3868    -2700.261    1051.4076    12049.359 
   36450    302.47179    224.42162   -3147.3874   -2697.4836    636.56002    12048.734 
   36500     308.8833    224.52948   -3150.9828   -2691.5423    488.43626    12048.228 
   36550    310.65714    224.57893   -3152.6309    -2690.552    473.85682    12047.773 
   36600    316.33242    224.74479   -3158.1597   -2687.6392    359.48213    12047.331 
   36650    286.26775    223.80751   -3126.9171   -2701.1156    1301.7013    12046.905 
   36700    311.01565    224.63878   -3154.6261   -2692.0139    541.41992    12046.845 
   36750    293.78026     224.0072   -3133.5733   -2696.5974    940.50823    12046.915 
   36800    291.27833    224.02988   -3134.3292   -2701.0748     964.2021    12047.217 
   36850    304.78519    224.30055   -3143.3516   -2690.0067     668.9814    12047.798 
   36900    291.35359    223.86334   -3128.7779   -2695.4115    1144.1103    12048.552 
   36950    293.36715    223.90059   -3130.0195   -2693.6581    1071.6477    12049.668 
   37000    305.46726    224.42272    -3147.424   -2693.0646    572.81499     12051.11 
   37050    308.00087    229.50226   -3150.0754   -2691.9474    548.33425    12052.652 
   37100    287.06919    228.74427   -3124.8089   -2697.8152    1283.5609    12054.308 
   37150    283.66326    228.60312   -3120.1038   -2698.1762    1404.6902    12056.415 
   37200    302.42403      229.261   -3142.0332   -2692.2004    727.50898    12059.025 
   37250     308.6532    229.34994   -3144.9981   -2685.8998    494.55374    12061.819 
   37300    311.45147    229.35115   -3145.0384    -2681.778    414.93247     12064.67 
   37350     313.0553    229.47887   -3149.2957   -2683.6497    321.68057     12067.52 
   37400     297.0119    228.96826   -3132.2753   -2690.4926    830.79555     12070.36 
   37450    302.96348    229.21575   -3140.5249   -2689.8897    670.40749    12073.384 
   37500    304.82966    229.17838   -3139.2793   -2685.8682    689.95312    12076.547 
   37550    299.59367    229.02235   -3134.0784   -2688.4555    774.47989    12079.875 
   37600    316.98361    229.66132   -3155.3772   -2683.8881    133.92948    12083.365 
   37650    299.99687    229.07041   -3135.6803   -2689.4577    567.52781    12086.758 
   37700     297.9434     229.0497     -3134.99   -2691.8218     580.5947     12090.22 
   37750    308.17719      229.269      -3142.3   -2683.9098    238.04844    12093.783 
   37800    298.19438    229.08045   -3136.0151   -2692.4736    498.33609    12097.269 
   37850    287.42165     228.7002   -3123.3401   -2695.8222    832.59481    12100.826 
   37900     286.7067    228.63297   -3121.0989   -2694.6444    832.11145    12104.602 
   37950    291.55374    228.80427    -3126.809   -2693.1449     584.2408    12108.602 
   38000    303.49383    229.11623   -3137.2076   -2685.7836    154.60546    12112.706 
   38050    306.19322    229.20792   -3140.2639   -2684.8247    19.556501    12116.684 
   38100    306.82412     229.2184   -3140.6132   -2684.2356    -70.13411    12120.453 
   38150    293.11023     228.6588     -3121.96   -2685.9808    387.07732    12123.999 
   38200    298.26116     228.8283   -3127.6102   -2683.9693    324.04521    12127.499 
   38250    296.85879    228.80532    -3126.844   -2685.2891    331.64782     12130.98 
   38300    302.17207    228.97489   -3132.4964   -2683.0384    60.367619    12134.394 
   38350     300.5532    228.93175   -3131.0583   -2684.0082    11.541384    12137.652 
   38400    292.75517    228.64636   -3121.5454   -2686.0943    281.74863    12140.713 
   38450    290.81532    228.57185   -3119.0616   -2686.4959    320.05406    12143.697 
   38500    299.84403    228.87579   -3129.1931   -2683.1978   -47.857989    12146.631 
   38550    294.47818    228.62587   -3120.8623   -2682.8483    128.70861     12149.35 
   38600    292.13281    228.57225   -3119.0749   -2684.5495    197.69464    12151.922 
   38650    298.84379    228.77252   -3125.7507   -2681.2432    -41.24421    12154.371 
   38700    301.92111    228.87871   -3129.2904   -2680.2056   -233.28549    12156.579 
   38750    295.10148    228.59498   -3119.8325   -2680.8914    55.254077    12158.464 
   38800    301.33477    228.74877   -3124.9589   -2676.7463   -35.068225    12160.154 
   38850    315.11214    229.24506   -3141.5019   -2672.7965   -494.05411    12161.593 
   38900    293.64981    228.53948   -3117.9827   -2681.2009      123.485    12162.596 
   38950    295.60076    228.55941   -3118.6469   -2678.9632    121.39823     12163.42 
   39000     305.2699     228.8167   -3127.2233   -2673.1575   -102.94024    12164.094 
   39050    297.36976    228.51579    -3117.193    -2674.878    203.88168    12164.522 
   39100    308.17334    228.79782   -3126.5939   -2668.2094    6.0157757    12164.794 
   39150    307.70789    228.77367   -3125.7889   -2668.0968    54.076806    12164.872 
   39200    315.62387     228.8399   -3127.9967   -2658.5301   -105.31147    12164.754 
   39250    304.44819    228.43556   -3114.5186    -2661.675    322.97442    12164.381 
   39300    296.21035    228.07573   -3102.5244    -2661.934    735.45065    12163.966 
   39350    312.36564    228.49456   -3116.4855   -2651.8653    360.29141      12163.7 
   39400    308.41594    228.24062   -3108.0207   -2649.2753    537.04828    12163.435 
   39450    310.43602    228.34524   -3111.5079   -2649.7579    518.39337    12163.235 
   39500     320.7389    228.52352   -3117.4505   -2640.3757    335.80541    12163.081 
   39550    309.95667    228.08646   -3102.8819   -2641.8448    715.94897     12162.91 
   39600    316.52108    228.21481   -3107.1604   -2636.3592    570.56626    12162.889 
   39650    312.43216    227.96873   -3098.9578   -2634.2386    836.72902    12162.982 
   39700    311.20428    227.85617   -3095.2058    -2632.313    954.56906      12163.3 
   39750    344.73887    229.07047   -3135.6824   -2622.9094   -170.18263    12163.829 
   39800    326.38284    228.39983   -3113.3276   -2627.8578    307.16905    12164.126 
   39850    317.83249     228.1174   -3103.9134   -2631.1616    676.18935    12164.331 
   39900    317.89323    228.05785   -3101.9283   -2629.0862    807.43304    12164.661 
   39950    321.37001    228.18998   -3106.3326   -2628.3191    689.27556    12165.184 
   40000    315.21382    227.90929   -3096.9764   -2628.1197    970.17394    12165.873 
   40050    306.36725    232.62193   -3087.3975   -2631.6995     1314.068    12166.875 
   40100    325.09841     233.1734     -3105.78   -2622.2208    742.32666    12168.322 
   40150    325.73764    233.13767   -3104.5891    -2620.079    645.07855    12169.975 
   40200    315.80462     232.8628   -3095.4266   -2625.6912    905.68471    12171.776 
   40250    310.45006     232.7342     -3091.14    -2629.369    1071.9725    12173.852 
   40300     315.4936    232.81406    -3093.802   -2624.5291    921.56363     12176.29 
   40350    316.05721    232.85973   -3095.3245   -2625.2133    843.17621    12179.016 
   40400    306.35853    232.51738   -3083.9127   -2628.2276    1097.0058    12182.006 
   40450    320.62118    232.99799    -3099.933   -2623.0333    655.40495    12185.355 
   40500    323.36844    233.21366    -3107.122    -2626.136    506.25764     12188.85 
   40550    313.00837    232.84521   -3094.8404   -2629.2642    764.28414     12192.42 
   40600    298.60552    232.29968   -3076.6561    -2632.503    1119.1918    12196.216 
   40650    325.72774    233.27946   -3109.3153     -2624.82    194.88954    12200.324 
   40700    332.53321    233.57239   -3119.0797   -2624.4618   -130.46017    12204.368 
   40750    318.58739    233.09958   -3103.3192   -2629.4446    340.29753    12208.159 
   40800    300.09737    232.51226   -3083.7418   -2637.3698    844.78817    12211.925 
   40850    312.73304    232.92783   -3097.5944   -2632.4277    390.12743    12215.901 
   40900    308.50487    232.84883    -3094.961   -2636.0834    321.79008    12219.901 
   40950    305.74902    232.85283   -3095.0944   -2640.3159    222.17523    12223.865 
   41000    308.53921    232.96299   -3098.7663   -2639.8376    100.95451    12227.756 
   41050    306.40796    232.94711    -3098.237   -2642.4784    126.64232    12231.507 
   41100    315.14508    233.13611   -3104.5369   -2635.7825    -167.8578     12235.09 
   41150    314.61306    233.12426   -3104.1419   -2636.1788   -250.39545    12238.379 
   41200    301.33354     232.7076   -3090.2532   -2642.0424    55.361664    12241.339 
   41250    298.34594    232.73297   -3091.0989   -2647.3319    70.811498    12244.101 
   41300     299.9927    232.79555    -3093.185   -2646.9686    42.584045      12246.7 
   41350    293.90359    232.67158   -3089.0526   -2651.8932    133.39595    12249.121 
   41400      304.455    232.96498   -3098.8327    -2645.979   -283.42601    12251.374 
   41450     303.8059     233.0675   -3102.2499   -2650.3617   -411.48411    12253.285 
   41500    313.39737    233.44294   -3114.7645   -2648.6097   -741.75605    12254.747 
   41550    310.29952    233.41191   -3113.7303   -2652.1832   -683.79563    12255.608 
   41600    296.62414    232.92646   -3097.5487   -2656.3428   -354.10839    12255.899 
   41650    297.60025    232.94667   -3098.2223   -2655.5645    -344.9111    12255.782 
   41700    308.27129    233.37793   -3112.5978   -2654.0676   -560.78526    12255.258 
   41750     290.8496    232.80268   -3093.4227    -2660.806     27.78518    12254.276 
   41800    289.48966    232.81585   -3093.8617   -2663.2678   -9.2274621    12253.078 
   41850    297.31116    233.21271   -3107.0904   -2664.8626   -398.18259     12251.66 
   41900    294.58717    233.10021   -3103.3404   -2665.1643   -297.56679    12249.861 
   41950    289.13565    232.96242   -3098.7473     -2668.68   -190.12093    12247.702 
   42000    292.94195    233.23384   -3107.7947   -2672.0658   -439.98362    12245.205 
   42050    289.74408    233.09098   -3103.0328   -2672.0605   -324.39894    12242.296 
   42100    292.95089    233.16411   -3105.4702    -2669.728   -375.01496    12238.999 
   42150    279.80004    232.71091   -3090.3635   -2674.1822     11.85421    12235.352 
   42200    304.31841     233.5969   -3119.8967   -2667.2462   -783.25334    12231.447 
   42250    318.42936    234.15021   -3138.3404   -2664.7009   -1245.4573    12226.932 
   42300    303.38172     233.5537   -3118.4565   -2667.1992    -650.6927    12221.582 
   42350    293.24668    233.29323   -3109.7744   -2673.5922   -174.08753    12215.645 
   42400    289.41819    233.17758   -3105.9193   -2675.4317   -22.659468    12209.413 
   42450    300.34207    233.56541   -3118.8469   -2672.1109   -350.28838    12202.952 
   42500    303.25724    233.58126   -3119.3755   -2668.3033    -353.3097    12196.113 
   42550    293.89276     233.2491   -3108.3034   -2671.1602    34.896624    12188.903 
   42600    292.38959    233.29798   -3109.9327   -2675.0254    116.01955      12181.5 
   42650    286.85362     233.1068     -3103.56   -2676.8869    368.92268    12173.981 
   42700    290.92821    233.27733   -3109.2444   -2676.5107    351.68097    12166.454 
   42750    288.93261    233.29512   -3109.8373   -2680.0719    435.52311    12158.948 
   42800     310.2622    234.04815   -3134.9385    -2673.447   -205.28068    12151.435 
   42850     314.0507     234.2661   -3142.2032   -2675.0766   -223.50045    12143.657 
   42900    295.85958     233.6008   -3120.0266   -2679.9579    598.41703    12135.614 
   42950    311.12915    234.13416   -3137.8055   -2675.0244     288.4511    12127.628 
   43000    306.92581    234.01645   -3133.8816   -2677.3527    436.56656    12119.636 
   43050    297.96152    233.63012   -3121.0041    -2677.809    752.76024    12111.694 
   43100    308.80607    234.11858    -3137.286   -2677.9604    384.08583    12103.943 
   43150    304.22089    233.96659   -3132.2198   -2679.7143    535.25525    12096.231 
   43200    306.19256     233.9795     -3132.65   -2677.2118    587.88331    12088.594 
   43250    301.44597    233.79555   -3126.5183   -2678.1403    758.14868    12081.097 
   43300    301.80057     233.9271   -3130.9032   -2681.9977    736.27041    12073.795 
   43350    312.21294    234.37157   -3145.7188   -2681.3258    426.65333    12066.675 
   43400    303.24896    233.98962   -3132.9873   -2681.9274    906.52688    12059.636 
   43450    288.60996    233.49912   -3116.6375    -2687.352    1531.2124    12052.905 
   43500    297.43154    233.82385   -3127.4616   -2685.0547    1330.1824    12046.748 
   43550    298.05274    233.87939    -3129.313   -2685.9822    1292.3845     12041.13 
   43600    296.66039    233.87019   -3129.0064   -2687.7465    1367.6084    12036.005 
   43650    292.89958     233.8129   -3127.0966   -2691.4307    1561.9937     12031.43 
   43700    296.28364    234.02457   -3134.1525    -2693.453    1474.8972    12027.487 
   43750    292.53647    233.94445   -3131.4817   -2696.3559    1543.6716    12024.153 
   43800     313.7366    234.55747   -3151.9157   -2685.2563    924.26609    12021.415 
   43850    310.54043    234.52941   -3150.9804   -2689.0751    897.33273    12019.009 
   43900    318.85143    234.81218    -3160.406   -2686.1387    682.69136    12016.855 
   43950    296.30183    234.10057   -3136.6855    -2695.959    1478.6356    12014.931 
   44000    297.05198    234.16969   -3138.9897   -2697.1474    1514.4926    12013.555 
[...]
   89400    300.58429    238.55548   -3118.5161   -2671.4197    505.46572    12136.935 
   89450    287.23063    238.17156   -3105.7187   -2678.4849    932.73468    12140.735 
   89500    279.64055    237.89435   -3096.4782   -2680.5341     1157.982    12144.882 
   89550    291.98296    238.30401   -3110.1338   -2675.8312    741.64853     12149.48 
   89600    287.92542    238.14309   -3104.7698   -2676.5025    777.09334    12154.379 
   89650    306.59078    238.69127   -3123.0422   -2667.0117    156.45673    12159.508 
   89700    291.56938    238.17922   -3105.9741   -2672.2867    577.81527    12164.636 
   89750    286.04679    237.95497   -3098.4989   -2673.0259    781.33028    12169.918 
   89800    288.00092    237.98574   -3099.5247   -2671.1452    629.74345    12175.481 
   89850    298.01055    238.26018   -3108.6725   -2665.4044    329.77314    12181.239 
   89900    290.15546    238.00796   -3100.2652    -2668.681    506.11108    12187.083 
   89950    306.92524    238.62707   -3120.9025   -2664.3744   -110.71388    12193.011 
   90000    300.74325    238.40913   -3113.6377   -2666.3049    5.1144099     12198.79 
   90050     296.4529    238.12641   -3104.2138   -2663.2626    153.33146    12204.439 
   90100     304.6693    238.38109    -3112.703   -2659.5305   -68.343746    12210.008 
   90150    287.38296    237.75793    -3091.931   -2664.4706    435.31415    12215.449 
   90200     305.4991    238.36452   -3112.1507   -2657.7439   -216.78872    12220.916 
   90250     303.9689    238.17509   -3105.8364   -2653.7056   -193.47027    12226.167 
   90300    298.55291    237.90596   -3096.8654   -2652.7906   -52.310174    12231.163 
   90350    305.80692     238.1287   -3104.2899   -2649.4253    -385.8371    12235.954 
   90400    293.31107    237.79586   -3093.1954   -2656.9174   -97.272718    12240.412 
   90450    282.93644    237.45692   -3081.8975    -2661.051    235.88905     12244.66 
   90500    279.98235    237.28829   -3076.2763   -2659.8238      301.788    12248.882 
   90550    298.93095     237.8386   -3094.6202    -2649.983   -290.29354    12253.088 
   90600    299.88188    237.81467   -3093.8222   -2647.7707    -286.5646    12257.025 
   90650    302.55942     237.9197   -3097.3232    -2647.289   -342.75973    12260.637 
   90700     308.7186    238.16029   -3105.3429   -2646.1474   -577.63045    12263.876 
   90750    289.94228    237.51319    -3083.773   -2652.5059    50.847162    12266.675 
   90800    279.65509    237.09333   -3069.7778    -2653.812    498.21998    12269.334 
   90850    293.18535     237.4881   -3082.9367   -2646.8457    98.645217     12272.07 
   90900    303.67673    237.84476   -3094.8252   -2643.1291   -336.83449    12274.694 
   90950    298.44246      237.599   -3086.6332   -2642.7227   -199.40745    12276.997 
   91000     304.0923    237.79786   -3093.2621   -2640.9479   -333.73899    12279.003 
   91050     300.9965     242.6302   -3087.6734   -2639.9639   -242.86143    12280.665 
   91100     298.0837    242.56983    -3085.661    -2642.284   -196.15383    12282.028 
   91150    293.31637    242.33605   -3077.8684   -2641.5825   -3.8258328    12283.148 
   91200    304.79389    242.74362    -3091.454   -2638.0961   -299.67477    12284.063 
   91250    300.04809    242.59792   -3086.5972   -2640.2984   -172.48798    12284.666 
   91300    285.36015     242.1233   -3070.7768   -2646.3252    198.24174    12285.024 
   91350    299.33932    242.54245   -3084.7482   -2639.5037   -272.64024     12285.27 
   91400    297.83289    242.43093    -3081.031   -2638.0272   -179.92413    12285.232 
   91450    296.16293     242.3221   -3077.4033   -2636.8834   -44.789497    12284.921 
   91500    305.14928     242.6449   -3088.1632   -2634.2767   -301.70566    12284.385 
   91550    310.07976    242.75568   -3091.8559   -2630.6358   -380.58254    12283.506 
   91600    297.71073     242.2446   -3074.8199   -2631.9977    58.865334     12282.28 
   91650    303.90238    242.45906   -3081.9687   -2629.9369   -85.718565    12280.864 
   91700    280.29366    241.61706   -3053.9019   -2636.9864    693.98374    12279.278 
   91750    302.43223     242.3728   -3079.0934   -2629.2484    66.014162    12277.809 
   91800    302.02102    242.34434   -3078.1445   -2628.9111    63.946554    12276.229 
   91850    293.94979    242.03368   -3067.7893   -2630.5613    363.10611    12274.507 
   91900    296.11961    242.11885   -3070.6284   -2630.1729    359.31185    12272.789 
   91950    300.20579    242.32051   -3077.3503    -2630.817    202.06928     12271.07 
   92000    305.65237    242.50502   -3083.5008   -2628.8661  -0.61937766    12269.273 
   92050    289.65542    246.87062   -3062.3541   -2631.5137    549.74408    12267.334 
   92100    293.21476    246.96646   -3065.5487    -2629.414    524.51627    12265.489 
   92150    297.60941    247.10799   -3070.2665    -2627.595    397.25535    12263.773 
   92200    299.81694    247.26001   -3075.3337   -2629.3787     291.4901    12262.108 
   92250    299.63184    247.21037   -3073.6791   -2627.9994    303.16458    12260.432 
   92300    307.15645    247.40612    -3080.204   -2623.3321    129.71534    12258.718 
   92350    293.89305    246.94144   -3064.7147   -2627.5711    534.37007     12256.95 
   92400    310.20893    247.52155   -3084.0516   -2622.6393    72.486772    12255.232 
   92450    310.57194    247.55649   -3085.2164   -2623.2642    125.53539    12253.396 
   92500    302.49628    247.31886   -3077.2954   -2627.3551    430.73743    12251.454 
   92550    298.05711     247.0702   -3069.0067   -2625.6694    662.67893    12249.564 
   92600     300.1441    247.17208   -3072.4027   -2625.9611    652.54157    12247.846 
   92650     300.3332    247.21266   -3073.7555   -2627.0326    713.00567    12246.312 
   92700    297.79607    247.11772   -3070.5908   -2627.6417    858.71077    12245.007 
   92750    303.28047    247.18361    -3072.787   -2621.6803    749.11646    12243.994 
   92800    300.06822    247.16734   -3072.2447   -2625.9159    762.65245    12243.228 
   92850    322.71892    247.99396   -3099.7986   -2619.7786   -16.457447    12242.662 
   92900    317.26815    247.86031   -3095.3435   -2623.4312    166.96489    12241.969 
   92950     313.2782    247.67341   -3089.1136    -2623.136    441.31606    12241.183 
   93000    292.28034    246.85063   -3061.6875   -2626.9427    1130.1456    12240.506 
   93050    313.92738    242.56327   -3085.4424   -2618.4992    397.48156    12240.193 
   93100    323.51935    243.01067   -3100.3558   -2619.1453   -82.142904     12239.94 
   93150    320.18097    242.89618   -3096.5394   -2620.2944    39.984169    12239.478 
   93200    306.18566    242.39185   -3079.7284   -2624.3004    582.97831    12238.876 
   93250    294.75439    242.05103   -3068.3677   -2629.9429     925.7806    12238.406 
   93300    298.25172    242.17546   -3072.5154   -2628.8886    740.96214    12238.242 
   93350    302.84238    242.35834   -3078.6113   -2628.1562    586.23933    12238.324 
   93400    302.44332    242.37288    -3079.096   -2629.2345    693.51387    12238.573 
   93450    296.59144    242.19082   -3073.0275   -2631.8702    882.41944    12239.028 
   93500    295.73885     242.1442   -3071.4734   -2631.5843    800.00222     12239.79 
   93550    304.88226     242.5202   -3084.0066   -2630.5174    504.84873    12240.808 
   93600    307.23976    242.55334   -3085.1115   -2628.1156     565.9762    12241.956 
   93650    299.50018    242.27047   -3075.6822   -2630.1984    790.62377    12243.267 
   93700    304.58566    242.39412   -3079.8041    -2626.756    538.30225    12244.834 
   93750    307.66671    242.55656   -3085.2188   -2627.5878    424.34377    12246.535 
   93800    315.89115    242.88632   -3096.2106   -2626.3464    206.31498    12248.294 
   93850    306.13475    242.52945   -3084.3151   -2628.9629    545.92324    12250.036 
   93900    288.09929    241.94195   -3064.7316   -2636.2057    1030.0032    12251.928 
   93950    309.96665    242.70403   -3090.1343   -2629.0824    244.28518    12254.159 
   94000     308.4305    242.62336   -3087.4452   -2628.6782      208.081    12256.417 
   94050    308.61785     237.7079   -3090.2634   -2631.2177     134.8238    12258.617 
   94100    304.48417       237.55   -3084.9999   -2632.1028    256.29978    12260.732 
   94150    303.00338    237.51404   -3083.8013   -2633.1068     322.1092    12262.793 
   94200    297.48681     237.2206   -3074.0199   -2631.5308    430.90862    12264.887 
   94250    305.65181    237.45707   -3081.9022   -2627.2683    122.72275    12267.025 
   94300    302.04518    237.40421   -3080.1403    -2630.871    182.85323    12269.074 
   94350    300.99443     237.4262   -3080.8732   -2633.1668    226.59926    12271.041 
   94400    296.52001    237.30317   -3076.7724   -2635.7214    332.60166     12272.97 
   94450    295.68416    237.18945   -3072.9816   -2633.1738    339.97217    12274.911 
   94500    301.07137    237.32603   -3077.5342   -2629.7134    138.16617    12276.853 
   94550    314.58061    237.87651   -3095.8837   -2627.9689   -469.40328    12278.661 
   94600    299.50471    237.44159   -3081.3862   -2635.8957   -197.21617    12280.084 
   94650    305.18163     237.5867   -3086.2234   -2632.2888   -365.13482    12281.184 
   94700    303.76485    237.57263   -3085.7542    -2633.927   -308.93479    12281.916 
   94750    294.51329    237.25053   -3075.0176   -2636.9514    7.9915358    12282.304 
   94800    298.67383    237.41655   -3080.5518   -2636.2971   -136.35225    12282.488 
   94850    311.16897    237.86185   -3095.3949   -2632.5547   -579.31087    12282.388 
   94900    307.00875    237.73219    -3091.073   -2634.4207   -443.33497    12281.801 
   94950     301.3113    237.52921   -3084.3069   -2636.1291   -287.46471    12280.775 
   95000    297.69171    237.50265   -3083.4216   -2640.6277   -255.08138    12279.374 
   95050    290.98198    242.31817   -3077.2722   -2644.4586    61.760534    12277.644 
   95100    291.74783    242.33003   -3077.6677   -2643.7149    142.20994    12275.759 
   95150    302.12141    242.79849   -3093.2831   -2643.9004   -229.44143     12273.72 
   95200    291.82836    242.43023   -3081.0078   -2646.9353    80.090796    12271.409 
   95250    295.73562    242.56913   -3085.6376   -2645.7533    17.265464    12268.922 
   95300    295.59039    242.49415   -3083.1382   -2643.4699     86.21077    12266.256 
   95350    297.80258    242.49142   -3083.0473   -2640.0885    52.234614    12263.448 
   95400    314.09468    243.09291   -3103.0968   -2635.9048   -390.55498    12260.442 
   95450    290.71822    242.35421   -3078.4738   -2646.0525    387.21515    12257.094 
   95500    287.75598    242.23205   -3074.4017   -2646.3865    552.77659    12253.714 
   95550    293.18515    242.44625   -3081.5418   -2645.4511    327.35422    12250.425 
   95600    306.42687    242.88693   -3096.2311   -2640.4444   -147.71628    12247.112 
   95650    306.58264    242.89301   -3096.4336   -2640.4151   -134.59877    12243.541 
   95700    293.61834    242.50862   -3083.6205   -2646.8855    284.33697    12239.712 
   95750    301.12225    242.71642   -3090.5473   -2642.6508    109.93785    12235.804 
   95800    304.74785    242.91141   -3097.0469   -2643.7576  -0.96258452    12231.759 
   95850    301.09426    242.87619   -3095.8732   -2648.0183    45.049026    12227.516 
   95900    291.15981    242.52027   -3084.0091   -2650.9309    502.47206    12223.092 
   95950    277.21699    241.97385    -3065.795   -2653.4557    1038.6238    12218.753 
   96000    285.95328     242.3004   -3076.6799    -2651.346    727.75705    12214.767 
   96050    297.05113     242.7311   -3091.0366   -2649.1956    370.77957    12210.989 
   96100    301.56438    242.94435   -3098.1451   -2649.5909    283.59961    12207.225 
   96150     293.0243    242.60286    -3086.762   -2650.9106    624.55295    12203.451 
   96200    309.49782    243.19232   -3106.4106    -2646.056    106.08251    12199.765 
   96250    304.94636    243.01256   -3100.4186   -2646.8339    328.69508    12195.968 
   96300      282.597    242.27335   -3075.7785   -2655.4368    1142.9413    12192.179 
   96350    302.11619    242.94008   -3098.0026   -2648.6276    614.39678    12188.756 
   96400    314.66425    243.34652   -3111.5506   -2643.5114    182.14167    12185.474 
   96450    298.13385    242.83016   -3094.3386   -2650.8871    760.58768     12182.13 
   96500    295.59627    242.70527   -3090.1756   -2650.4986    944.45579    12178.984 
   96550    305.33764    243.15098   -3105.0327   -2650.8661    590.11628    12176.135 
   96600    302.01917    243.00849   -3100.2829   -2651.0523    653.96421    12173.431 
   96650    303.58891    243.09172   -3103.0572   -2651.4917    628.85912     12170.87 
   96700    299.62541    242.90162   -3096.7207   -2651.0506    831.30027    12168.485 
   96750    310.60795    243.32548   -3110.8492   -2648.8434    464.65305    12166.312 
   96800    312.58822    243.39633   -3113.2108   -2648.2596    399.77803    12164.218 
   96850    311.35192    243.27671   -3109.2237   -2646.1114    496.82148     12162.15 
   96900    282.81052     242.3421   -3078.0701   -2657.4109    1267.1881    12160.219 
   96950    303.29762    243.13553   -3104.5176   -2653.3854    606.10549    12158.685 
   97000    291.51778    242.79012    -3093.004   -2659.3934    965.02199    12157.356 
   97050    298.68633    238.03653   -3101.2178   -2656.9445    614.49082    12156.336 
   97100    315.84666    238.61107    -3120.369    -2650.571     52.74811    12155.434 
   97150    280.43831    237.45954   -3081.9846   -2664.8538    1236.6384    12154.464 
   97200    283.72008    237.62752   -3087.5841    -2665.572    1193.9767    12153.891 
   97250    293.76339    238.02214    -3100.738   -2663.7872    800.70881    12153.789 
   97300    306.06861    238.47618   -3115.8726   -2660.6187    416.17713    12153.948 
   97350    305.44966    238.47497   -3115.8323   -2661.4991    458.64856     12154.16 
   97400    311.31703    238.78525    -3126.175   -2663.1145    203.04295    12154.415 
   97450    292.04144    238.09484   -3103.1614   -2668.7719    713.09188    12154.656 
   97500    291.74075    238.18234   -3106.0779   -2672.1356    633.15983    12155.055 
   97550    301.01053    238.48312   -3116.1042   -2668.3738    331.35481    12155.606 
   97600    296.72727    238.45759    -3115.253   -2673.8937    417.11453    12156.185 
   97650    302.95139    238.77392   -3125.7974   -2675.1802    188.74129    12156.779 
   97700    287.06508    238.16307   -3105.4358   -2678.4482    644.01551    12157.343 
   97750    296.68156     238.5648   -3118.8268   -2677.5355    231.59093    12158.029 
   97800    293.92532    238.45687   -3115.2292   -2678.0375    227.26959    12158.696 
   97850    289.43371     238.3445   -3111.4835   -2680.9728    367.67115     12159.31 
   97900    301.13783    238.83729   -3127.9097     -2679.99   -14.777571    12159.914 
   97950    291.56275    238.42084    -3114.028   -2680.3505    284.70181    12160.381 
   98000    299.05154    238.73497    -3124.499   -2679.6825    57.004585    12160.773 
   98050    292.90077    238.57607   -3119.2022   -2683.5345    214.94534     12161.04 
   98100     292.8764    238.56947   -3118.9825    -2683.351    209.36759    12161.249 
   98150    294.53027    238.64923   -3121.6411   -2683.5496    91.483883    12161.385 
   98200    284.66795    238.31833   -3110.6111   -2687.1891     313.8925    12161.408 
   98250    290.97491    238.57831   -3119.2771   -2686.4739    34.315849    12161.389 
   98300    290.70896    238.53208   -3117.7359   -2685.3283   -36.597063    12161.239 
   98350    286.37791    238.45443   -3115.1476   -2689.1822    111.15763    12160.895 
   98400    282.62682    238.36319   -3112.1062   -2691.7202    281.10604    12160.421 
   98450    287.38333    238.57872   -3119.2907   -2691.8298     96.95609    12159.896 
   98500    282.32541    238.27833   -3109.2777   -2689.3401     263.7449    12159.267 
   98550    281.25536     238.2226   -3107.4201   -2689.0741    322.04867    12158.597 
   98600    291.12489     238.6036   -3120.1199   -2687.0937   -12.309522    12157.905 
   98650    289.18257    238.62722   -3120.9074   -2690.7702    17.014303     12157.04 
   98700    282.47678     238.4244   -3114.1466   -2693.9838    301.01502    12156.013 
   98750    287.93951    238.60334   -3120.1114   -2691.8232    160.78083    12154.944 
   98800    290.41991     238.6902   -3123.0067   -2691.0291    86.182738    12153.783 
   98850    293.69718     238.8039   -3126.7965   -2689.9442    22.533184    12152.476 
   98900    293.14512    238.72095   -3124.0317   -2688.0006    142.89042     12151.02 
   98950    281.75611    238.43721   -3114.5736   -2695.4828    462.06239    12149.467 
   99000    291.06625    238.73165   -3124.3883   -2691.4494    86.993849    12147.939 
   99050     296.3928     234.0134   -3133.7799   -2692.9181   -132.50684    12146.271 
   99100    293.30381    233.85169   -3128.3896   -2692.1224    62.702274    12144.344 
   99150    300.39027    234.07018   -3135.6726   -2688.8648   -50.997619    12142.231 
   99200    288.74188    233.52171   -3117.3903   -2687.9086    407.19605    12139.925 
   99250    285.87012    233.50935   -3116.9783   -2691.7682    448.59592      12137.6 
   99300    305.63978    234.15177   -3138.3925   -2683.7765    -67.10661     12135.27 
   99350    294.80648    233.76841   -3125.6135   -2687.1112    372.51916    12132.751 
   99400    296.26215    233.73262   -3124.4207   -2683.7532    353.19376    12130.191 
   99450    305.26438    234.00934   -3133.6448   -2679.5871    48.657595    12127.582 
   99500    287.08912    233.42379   -3114.1264   -2687.1031    657.99417    12124.839 
   99550    300.85075    233.84751   -3128.2503   -2680.7576    409.66158    12122.168 
   99600    302.21111     233.8429   -3128.0965   -2678.5804     367.1063     12119.53 
   99650    301.16432    233.91542    -3130.514   -2682.5549    336.86483    12116.868 
   99700    295.48717      233.622   -3120.7333   -2681.2185    657.81193    12114.182 
   99750    305.06631    233.99507    -3133.169    -2679.406    443.37838    12111.613 
   99800    303.02578    233.87276   -3129.0921   -2678.3642    560.02912    12109.082 
   99850    302.30327    233.83563   -3127.8544   -2678.2012    572.00864    12106.635 
   99900      307.984    234.02429   -3134.1429   -2676.0401    381.32583    12104.277 
   99950     303.6737    233.82981   -3127.6604   -2675.9688    560.41746    12101.937 
  100000    306.45471    233.88958   -3129.6528   -2673.8247    559.44237    12099.669 
Loop time of 27.1053 on 1 procs for 100000 steps with 500 atoms

Performance: 318.757 ns/day, 0.075 hours/ns, 3689.319 timesteps/s
99.8% CPU use with 1 MPI tasks x 1 OpenMP threads

MPI task timing breakdown:
Section |  min time  |  avg time  |  max time  |%varavg| %total
---------------------------------------------------------------
Pair    | 21.877     | 21.877     | 21.877     |   0.0 | 80.71
Bond    | 0.0065582  | 0.0065582  | 0.0065582  |   0.0 |  0.02
Neigh   | 0.52011    | 0.52011    | 0.52011    |   0.0 |  1.92
Comm    | 0.78244    | 0.78244    | 0.78244    |   0.0 |  2.89
Output  | 0.018327   | 0.018327   | 0.018327   |   0.0 |  0.07
Modify  | 2.7151     | 2.7151     | 2.7151     |   0.0 | 10.02
Other   |            | 1.186      |            |       |  4.38

Nlocal:    500 ave 500 max 500 min
Histogram: 1 0 0 0 0 0 0 0 0 0
Nghost:    1587 ave 1587 max 1587 min
Histogram: 1 0 0 0 0 0 0 0 0 0
Neighs:    14476 ave 14476 max 14476 min
Histogram: 1 0 0 0 0 0 0 0 0 0

Total # of neighbors = 14476
Ave neighs/atom = 28.952
Ave special neighs/atom = 0
Neighbor list builds = 632
Dangerous builds = 0

write_data      ${walker}/final_restart_file
write_data      7/final_restart_file

quit
