LAMMPS (19 May 2017)
Processor partition = 7
  using 1 OpenMP thread(s) per MPI task
# gREM variables
variable        lambda world 1000 1005 1010 1015 1020 1025 1030 1035 1040 1045 1050 1055 1060 1065 1070 1075
variable        walker world 0 1 2 3 4 5 6 7 8 9 10 11 12 13 14 15
variable        replica world 4 9 1 7 0 12 3 5 8 13 14 6 15 11 2 10

variable        T0 equal 300.0
variable        press equal 0.0

units           real
atom_style      full
pair_style      lj/cut 5.0

# LJ particles
read_data       ${walker}/restart_file
read_data       7/restart_file
  orthogonal box = (0.997517 0.997517 0.997517) to (24.0025 24.0025 24.0025)
  1 by 1 by 1 MPI processor grid
  reading atoms ...
  500 atoms
  reading velocities ...
  500 velocities
  0 = max # of 1-2 neighbors
  0 = max # of 1-3 neighbors
  0 = max # of 1-4 neighbors
  1 = max # of special neighbors

#dump            dump all xyz 1000 ${walker}/dump.xyz

fix             fxnpt all npt temp ${T0} ${T0} 1000.0 iso ${press} ${press} 10000.0
fix             fxnpt all npt temp 300 ${T0} 1000.0 iso ${press} ${press} 10000.0
fix             fxnpt all npt temp 300 300 1000.0 iso ${press} ${press} 10000.0
fix             fxnpt all npt temp 300 300 1000.0 iso 0 ${press} 10000.0
fix             fxnpt all npt temp 300 300 1000.0 iso 0 0 10000.0
fix             fxgREM all grem ${lambda} -.03 -30000 fxnpt
fix             fxgREM all grem 1035 -.03 -30000 fxnpt
thermo_modify   press fxgREM_press

thermo          50
thermo_style    custom step temp f_fxgREM pe etotal press vol
WARNING: New thermo_style command, previous thermo_modify settings will be lost (../output.cpp:705)
timestep        1.0

temper/grem     100000 1000 ${lambda} fxgREM fxnpt 10294 98392 ${walker}
temper/grem     100000 1000 1035 fxgREM fxnpt 10294 98392 ${walker}
temper/grem     100000 1000 1035 fxgREM fxnpt 10294 98392 7
Neighbor list info ...
  update every 1 steps, delay 10 steps, check yes
  max neighbors/atom: 2000, page size: 100000
  master list distance cutoff = 7
  ghost atom cutoff = 7
  binsize = 3.5, bins = 7 7 7
  1 neighbor lists, perpetual/occasional/extra = 1 0 0
  (1) pair lj/cut, perpetual
      attributes: half, newton on
      pair build: half/bin/newton
      stencil: half/bin/3d/newton
      bin: standard
Per MPI rank memory allocation (min/avg/max) = 5.721 | 5.721 | 5.721 Mbytes
Step Temp f_fxgREM PotEng TotEng Press Volume 
       0    293.10069     228.8666   -3128.8867   -2692.9216   -317.35192    12174.882 
      50    284.57705    228.56061   -3118.6871   -2695.4003   -154.66933    12174.673 
     100    288.40596    228.79899   -3126.6331   -2697.6511   -315.89977    12174.144 
     150    287.83881    228.79882   -3126.6274    -2698.489   -282.70676    12173.268 
     200    290.93929    228.78367   -3126.1222   -2693.3721   -235.28532    12172.031 
     250     288.0654    228.66586   -3122.1955     -2693.72   -114.57725    12170.479 
     300    308.15663    229.35631   -3145.2105   -2686.8508   -720.96548    12168.607 
     350    296.52139     229.0058   -3133.5268   -2692.4737   -405.73186    12166.187 
     400    293.29973    228.89048   -3129.6825   -2693.4214   -295.04733    12163.335 
     450    295.71709    228.87921   -3129.3069   -2689.4501   -247.61949    12160.106 
     500     282.3382    228.42809   -3114.2696   -2694.3129    199.47785    12156.556 
     550    299.17966    229.02591   -3134.1971     -2689.19   -337.98127    12152.867 
     600    309.38936    229.39021   -3146.3404   -2686.1472   -607.30507    12148.805 
     650    304.59288    229.27112   -3142.3707   -2689.3118   -336.76781    12144.225 
     700    295.39963    228.90779   -3130.2598   -2690.8753    95.204969    12139.266 
     750    282.94777    228.49524    -3116.508   -2695.6447    575.57314    12134.164 
     800    297.55635     228.9488   -3131.6267   -2689.0342    299.71971    12129.132 
     850    313.88791    229.50003    -3150.001   -2683.1165   -80.144575    12124.042 
     900    307.10885    229.23257   -3141.0857   -2684.2846    204.83287    12118.724 
     950    306.97672    229.28707   -3142.9023   -2686.2977    187.29512     12113.27 
    1000    307.53357    229.33779   -3144.5931   -2687.1603    155.97454    12107.711 
    1050    287.68088      228.622   -3120.7335     -2692.83     796.3406     12102.08 
    1100    302.15282    228.98151    -3132.717   -2683.2876    474.98891    12096.613 
    1150    303.80542    229.05714    -3135.238   -2683.3505    559.20528    12091.222 
    1200    304.61269    229.02403   -3134.1343    -2681.046    691.35722    12085.919 
    1250    305.54975    228.93113   -3131.0376   -2676.5555    728.59455    12080.785 
    1300     304.7475    228.89678   -3129.8927   -2676.6039     918.4556     12075.82 
    1350    299.20214    228.77105   -3125.7015    -2680.661    1128.7883    12071.148 
    1400    313.54102    229.23363   -3141.1208   -2674.7523    689.04507    12066.834 
    1450    300.61292    228.75162   -3125.0541   -2677.9152    1153.4476    12062.727 
    1500    308.99818    229.03376   -3134.4585   -2674.8472    910.50352    12058.974 
    1550    312.52195    229.19693   -3139.8978   -2675.0451    691.05596    12055.506 
    1600    320.40091    229.38227   -3146.0758   -2669.5037    641.05019    12052.175 
    1650    302.75843     228.7819   -3126.0632    -2675.733     1403.351    12049.011 
    1700     299.0129    228.60311   -3120.1038   -2675.3448    1549.5801    12046.351 
    1750    315.09798    229.03767   -3134.5891   -2665.9047    1031.3962    12044.277 
    1800    324.23341    229.33349   -3144.4496    -2662.177    769.38499    12042.538 
    1850    303.69108    228.68389   -3122.7965    -2671.079    1503.1888    12041.039 
    1900    307.27014    228.72099   -3124.0332   -2666.9921    1552.9614    12040.089 
    1950    332.06142    229.58238   -3152.7459   -2658.8297     778.9672    12039.709 
    2000    324.08161    229.24465   -3141.4884   -2659.4416    1113.2627    12039.589 
    2050    300.41618    223.50272   -3116.7573   -2669.9109    1915.0004    12039.845 
    2100    316.16728    223.94678   -3131.5595   -2661.2846    1481.7061    12040.823 
    2150    320.28995    223.97557   -3132.5191    -2656.112    1318.4967    12042.383 
    2200    326.41596    224.16332   -3138.7773   -2653.2583    1143.4229    12044.394 
    2250    314.02678    223.71365   -3123.7883   -2656.6973    1519.3147    12046.809 
    2300    317.18894    223.85512   -3128.5039   -2656.7094    1380.9133    12049.774 
    2350    327.06934    224.13009   -3137.6695   -2651.1787    1078.2805     12053.22 
    2400    330.93436    224.17651   -3139.2169   -2646.9772    915.11123    12056.984 
    2450    326.88638    224.02268   -3134.0895   -2647.8707     948.0582    12061.017 
    2500    328.04768    224.08546   -3136.1821    -2648.236    893.23621    12065.302 
    2550    315.62588    223.66146   -3122.0487   -2652.5792    1208.1088    12069.834 
    2600    316.99106    223.64827   -3121.6092    -2650.109    1072.8721    12074.744 
    2650    307.85218    223.45008   -3115.0027   -2657.0959    1259.8368    12080.025 
    2700    312.63932    223.61407   -3120.4692   -2655.4419    1026.3989    12085.727 
    2750    326.57489    224.09603   -3136.5342   -2650.7788    571.69766    12091.733 
    2800    312.99396    223.63045   -3121.0149   -2655.4601    963.22421    12097.866 
    2850    325.03617    224.02987    -3134.329   -2650.8623    612.58959    12104.228 
    2900    316.37184    223.63412   -3121.1372   -2650.5581    867.99149    12110.707 
    2950    295.10437     222.9864   -3099.5468   -2660.6014    1364.5626    12117.447 
    3000    320.17653    223.85547   -3128.5156   -2652.2772    502.74066    12124.602 
    3050    298.36269    228.17743   -3105.9144   -2662.1225    1028.5235    12131.903 
    3100    322.86379    228.96964   -3132.3212   -2652.0858    266.32831    12139.461 
    3150    308.40131    228.54366   -3118.1218   -2659.3983    516.29631    12147.006 
    3200    303.86136    228.43103   -3114.3678   -2662.3971    534.00246    12154.593 
    3250    305.47557    228.43563    -3114.521   -2660.1493    355.71951    12162.237 
    3300    298.13337    228.20881   -3106.9602   -2663.5094    410.56859    12169.879 
    3350    307.54579    228.55272   -3118.4239   -2660.9728   -26.688493    12177.504 
    3400    304.21972    228.50157   -3116.7189   -2664.2151   -91.705837    12184.924 
    3450    297.29448    228.35743   -3111.9143   -2669.7112    31.484294     12192.09 
    3500    285.52903    227.90673    -3096.891   -2672.1882    290.41752    12199.084 
    3550    308.83768    228.70563   -3123.5211   -2664.1484   -604.18062    12205.962 
    3600    311.21189    228.79271   -3126.4238   -2663.5197   -749.81091    12212.332 
    3650    292.30535    228.26794   -3108.9312   -2674.1491    -236.9554    12218.109 
    3700    288.02777    228.11632   -3103.8774   -2675.4579   -234.83793    12223.521 
    3750    303.00816    228.70049   -3123.3497    -2672.648   -817.96191    12228.562 
    3800    306.84933    228.86022    -3128.674   -2672.2589   -980.31785    12232.966 
    3850    284.74863    228.20883   -3106.9611   -2683.4191   -318.20625     12236.65 
    3900    271.07494    227.83508   -3094.5028   -2691.2993   -67.472966    12239.938 
    3950    287.66851    228.42136   -3114.0455   -2686.1604   -751.70664    12242.931 
    4000    279.56672    228.17789   -3105.9298   -2690.0955   -605.99631    12245.352 
    4050    276.68307    223.12504   -3104.1681    -2692.623   -584.34816    12247.224 
    4100    289.84327    223.51873    -3117.291   -2686.1711   -951.61266    12248.536 
    4150    291.33343    223.56261   -3118.7537   -2685.4173   -1020.5986    12249.132 
    4200    290.98861    223.58775   -3119.5917   -2686.7682   -981.87651     12248.94 
    4250    296.86531      223.708      -3123.6   -2682.0354   -1088.5461    12247.981 
    4300    285.97234      223.408   -3113.5999   -2688.2377   -807.01654    12246.225 
    4350    285.60318    223.43934   -3114.6446   -2689.8315   -882.68554    12243.773 
    4400    294.51233     223.7071   -3123.5701   -2685.5053    -1163.426    12240.603 
    4450    292.92437    223.71202   -3123.7341   -2688.0313   -1068.5546    12236.584 
    4500    299.00599    223.90063    -3130.021   -2685.2722   -1172.7673    12231.735 
    4550    287.93665    223.59313    -3119.771    -2691.487   -759.68671    12226.043 
    4600    289.90172    223.76024   -3125.3414   -2694.1345   -675.73533    12219.687 
    4650    299.49677    224.09819   -3136.6063   -2691.1275    -842.1049    12212.727 
    4700    291.39584    223.81051    -3127.017   -2693.5878   -566.47137    12205.112 
    4750    283.97724    223.67783   -3122.5942   -2700.1996   -398.67373    12196.967 
    4800     295.1117    224.07867   -3135.9556   -2696.9993   -666.03686    12188.348 
    4850    290.51101    223.80797   -3126.9324   -2694.8193   -410.74372    12179.189 
    4900    304.10242    224.31271   -3143.7569   -2691.4276   -716.69528    12169.549 
    4950    290.28799    223.77814   -3125.9381   -2694.1567   -178.55568     12159.35 
    5000    290.29826    223.79932   -3126.6442   -2694.8475      19.8395    12148.816 
    5050    295.29298     229.0477   -3134.9233   -2695.6973   -10.006333    12138.087 
    5100    293.86971    229.02107   -3134.0358   -2696.9268    175.32947    12127.169 
    5150    290.57301    228.96395   -3132.1316   -2699.9263    328.63664    12116.157 
    5200    301.29146    229.30841   -3143.6135   -2695.4653    116.85645     12105.11 
    5250    288.23695    228.78663   -3126.2209   -2697.4903     706.7799     12093.98 
    5300    280.39609    228.55999   -3118.6665   -2701.5986    1112.7206    12083.037 
    5350    298.87214    229.15551    -3138.517   -2693.9674    684.21434    12072.462 
    5400    301.33877    229.28868   -3142.9558   -2694.7373    596.51925    12062.096 
    5450    311.81421    229.66849   -3155.6163   -2691.8163    352.53266    12051.839 
    5500    287.48686     228.7622   -3125.4066   -2697.7917     1270.426    12041.644 
    5550    297.25676    229.09345   -3136.4485   -2694.3016    1142.2632    12031.867 
    5600    317.81992    229.81745   -3160.5818   -2687.8488    673.80076    12022.493 
    5650    301.71051    229.24317   -3141.4389   -2692.6673    1272.2586    12013.352 
    5700    315.28752    229.68625   -3156.2082   -2687.2419    963.87277    12004.619 
    5750     304.9216    229.32498   -3144.1659   -2690.6182    1338.6858    11996.258 
    5800    302.61132     229.2821   -3142.7366   -2692.6252    1490.3549    11988.393 
    5850    319.36406    229.83933   -3161.3109   -2686.2811     1105.612    11981.075 
    5900    315.86813    229.70739   -3156.9129    -2687.083     1347.967    11974.175 
    5950    299.13046    229.14036    -3138.012   -2693.0781    1929.3531    11967.812 
    6000    303.01927    229.30428    -3143.476   -2692.7578     1898.757    11962.231 
    6050    302.45662    229.33644    -3144.548   -2694.6667    1965.4696    11957.442 
    6100    309.76977    229.56665   -3152.2217   -2691.4626    1725.6851    11953.465 
    6150    328.72933    230.12216   -3170.7387   -2681.7788    1264.0235    11950.182 
    6200    309.29653    229.43243   -3147.7478   -2687.6926    1957.0216    11947.418 
    6250    314.87243     229.6545   -3155.1499    -2686.801    1863.4459     11945.41 
    6300    313.62896    229.60293   -3153.4309   -2686.9316    1847.2177    11944.189 
    6350    320.08239    229.88496   -3162.8321   -2686.7338    1540.3131    11943.693 
    6400     320.4843    229.96859   -3165.6196   -2688.9235    1439.8604     11943.78 
    6450     322.8589    230.06966   -3168.9886   -2688.7604    1367.1231     11944.39 
    6500    305.05796     229.4388   -3147.9601   -2694.2095    1954.5721    11945.544 
    6550    290.84961    228.93403   -3131.1342   -2698.5175    2319.0956    11947.519 
    6600     315.0797    229.77365   -3159.1218   -2690.4646    1481.8842    11950.425 
    6650    311.74942    229.70899   -3156.9663   -2693.2626    1493.7362    11953.921 
    6700    307.44562    229.59941   -3153.3138   -2696.0117    1531.4962    11957.973 
    6750     305.9018    229.56011   -3152.0036   -2696.9978    1474.6272    11962.617 
    6800    297.18506    229.36219   -3145.4064   -2703.3661    1662.3337    11967.827 
    6850    306.12105    229.57548   -3152.5162   -2697.1843    1418.3177    11973.663 
    6900    309.63397    229.68661   -3156.2204   -2695.6634     1250.948    11980.039 
    6950    296.72201    229.20443   -3140.1478   -2698.7963    1574.7928    11986.881 
    7000    298.49765    229.26875   -3142.2918   -2698.2992    1437.6654     11994.29 
    7050    299.32918    229.39252   -3146.4173   -2701.1879     1257.823    12002.235 
    7100    297.06049    229.32464   -3144.1546   -2702.2996    1199.8875     12010.63 
    7150    306.91898    229.69068   -3156.3561   -2699.8373    695.79741    12019.402 
    7200    308.20602     229.8952   -3163.1734   -2704.7403    310.00274     12028.34 
    7250    299.57125    229.58365   -3152.7884   -2707.1989    446.28059    12037.248 
    7300    294.37629    229.49548   -3149.8492   -2711.9868    479.66257    12046.164 
    7350    288.03801    229.29942    -3143.314   -2714.8793    493.91322    12055.113 
    7400    293.81854    229.54513   -3151.5045   -2714.4717    181.77323    12064.088 
    7450    285.60372    229.26006   -3142.0019    -2717.188    365.76529    12072.978 
    7500    277.09921    229.12705   -3137.5684   -2725.4043    440.62708    12081.834 
    7550    298.17631    229.78171   -3159.3904   -2715.8758   -368.52186    12090.668 
    7600    293.90663    229.59282    -3153.094   -2715.9301   -407.52617    12099.125 
    7650    285.68859    229.40517   -3146.8391    -2721.899   -276.79061    12107.135 
    7700    274.04657    228.94796   -3131.5986   -2723.9751    17.833359    12114.796 
    7750    273.66334    228.94088   -3131.3627   -2724.3092   -25.783151    12122.235 
    7800     267.3538    228.75899   -3125.2998   -2727.6312    95.943519    12129.446 
    7850    269.97241     228.8482   -3128.2734   -2726.7099   -88.777177    12136.483 
    7900    283.13528    229.34658   -3144.8859   -2723.7436   -611.03484    12143.242 
    7950     282.6608     229.3807   -3146.0233   -2725.5868   -705.92434    12149.485 
    8000    274.95985    229.13782   -3137.9272   -2728.9453   -602.71333     12155.15 
    8050    276.49163    224.24456   -3141.4852   -2730.2249   -724.77625    12160.257 
    8100    278.03975    224.26543   -3142.1809   -2728.6178   -757.37155    12164.771 
    8150    295.81597    224.82882   -3160.9607   -2720.9569   -1323.0649    12168.608 
    8200    288.22876    224.55558   -3151.8525   -2723.1341   -1069.4956    12171.541 
    8250    283.01789    224.33416    -3144.472   -2723.5044   -724.32589    12173.653 
    8300    280.34852    224.24679   -3141.5598   -2724.5626   -673.28443     12175.15 
    8350     290.4253    224.53841   -3151.2803   -2719.2946    -1023.067    12176.039 
    8400    287.60086    224.36211   -3145.4037   -2717.6192   -930.30884    12176.183 
    8450    295.20202    224.63488   -3154.4959   -2715.4052   -1107.4042    12175.565 
    8500    277.93546    224.01421   -3133.8069    -2720.399   -587.80392    12174.174 
    8550    292.15613    224.46096   -3148.6988   -2714.1387   -961.04514    12172.196 
    8600    283.90836    224.13639   -3137.8797   -2715.5875   -677.03558    12169.533 
    8650    277.90225    223.80605   -3126.8685     -2713.51   -419.78311    12166.285 
    8700    275.81737    223.78107   -3126.0355   -2715.7781    -334.0601    12162.599 
    8750    278.91453    223.89682   -3129.8939   -2715.0297   -399.60697    12158.523 
    8800    281.98526    223.98891   -3132.9636   -2713.5319   -360.92574    12154.031 
    8850    289.20962    224.14112   -3138.0372   -2707.8598   -381.00574    12149.152 
    8900    286.20288    224.01308   -3133.7694   -2708.0643     -176.165    12143.873 
    8950    286.20363    224.03154   -3134.3847   -2708.6785    3.5973854    12138.301 
    9000    292.85451    224.21027   -3140.3425   -2704.7436    13.487789    12132.539 
    9050    296.38634    219.21565   -3140.5216   -2699.6694   -20.942557    12126.583 
    9100    306.90494    219.48528   -3149.5093   -2693.0114   -296.32315    12120.377 
    9150    311.60923    219.62722   -3154.2405   -2690.7454   -301.60957      12113.8 
    9200    299.81905    219.19821   -3139.9404   -2693.9823    164.21038    12106.866 
    9250    299.76753    219.29725   -3143.2417   -2697.3602    185.65974    12099.769 
    9300    304.75643    219.43635   -3147.8784   -2694.5763    199.46093    12092.561 
    9350    296.45474    218.99406   -3133.1354   -2692.1815    612.56083    12085.284 
    9400    300.19474    219.14679   -3138.2265   -2691.7096    563.24091    12078.102 
    9450    289.35493     218.8063   -3126.8767   -2696.4832    1007.0931    12071.033 
    9500    303.51074    219.21732   -3140.5775   -2689.1283    721.94641    12064.256 
    9550    322.91865    219.84254   -3161.4178   -2681.1008    247.74347    12057.639 
    9600    294.59963    218.99675   -3133.2251   -2695.0305    1155.3785    12051.012 
    9650    321.93584      219.776   -3159.2002    -2680.345    558.83281    12044.675 
    9700     289.2564    218.69104   -3123.0345   -2692.7875    1588.7581    12038.535 
    9750    301.03875    218.99635   -3133.2116   -2685.4392    1417.8897    12032.933 
    9800    313.94912    219.40362   -3146.7873   -2679.8118     1056.267    12027.868 
    9850    314.25774    219.40733    -3146.911   -2679.4764    1106.9986    12023.146 
    9900    309.44365    219.22686   -3140.8952   -2680.6213    1270.2921    12018.794 
    9950    321.34308    219.65015    -3155.005   -2677.0315    991.31571    12014.851 
   10000    311.06761    219.32544   -3144.1813   -2681.4918    1338.6339     12011.23 
   10050    308.83986    224.31492   -3143.8307   -2684.4548    1420.0446    12008.089 
   10100    301.51226    224.05696   -3135.2319   -2686.7553    1676.2543    12005.499 
   10150    306.88929    224.20765   -3140.2551   -2683.7805    1547.0683    12003.552 
   10200    314.64631    224.47501    -3149.167   -2681.1545    1287.1329    12002.194 
   10250    316.53243    224.55705   -3151.9016   -2681.0836    1198.2368    12001.302 
   10300    318.68318    224.67471   -3155.8236   -2681.8066    1047.7954    12000.806 
   10350    311.33781    224.55306   -3151.7688   -2688.6774    1194.0192    12000.641 
   10400    313.84295    224.50158   -3150.0527   -2683.2351    1195.0826    12000.869 
   10450    310.15311    224.35997   -3145.3323    -2684.003    1233.3325    12001.505 
   10500    315.39904    224.54993   -3151.6642    -2682.532    976.57672    12002.531 
   10550    313.85829    224.53932   -3151.3108   -2684.4704    964.93296    12003.838 
   10600     306.9642    224.32007   -3144.0023   -2687.4163    1183.9206    12005.419 
   10650    297.81494     224.0265   -3134.2167   -2691.2395    1504.9245    12007.395 
   10700    304.56637    224.28242   -3142.7475   -2689.7281    1259.9489    12009.904 
   10750    305.74392    224.32911   -3144.3037   -2689.5328    1135.3072    12012.864 
   10800    307.86247    224.46315   -3148.7718   -2690.8497    1056.2123    12016.177 
   10850    308.80201    224.43271   -3147.7572   -2688.4376    1012.9001    12019.808 
   10900    299.03618    224.08912   -3136.3039   -2691.5102    1188.4987    12023.751 
   10950    307.17587    224.45692   -3148.5641   -2691.6632    772.48905    12028.041 
   11000    311.36067     224.5474     -3151.58   -2688.4546    556.02467    12032.513 
   11050    321.22911    219.83787   -3161.2623   -2683.4583    284.95033    12037.014 
   11100    323.05209    220.01052   -3167.0174   -2686.5019    120.76747      12041.4 
   11150    310.08225     219.6942   -3156.4734   -2695.2495    427.83935    12045.597 
   11200    290.46773    219.07545   -3135.8482   -2703.7995    956.55503    12049.771 
   11250    307.95142    219.62623   -3154.2078   -2696.1533    390.87928    12054.136 
   11300    301.18635    219.39419    -3146.473   -2698.4811     565.8995    12058.495 
   11350    298.65919    219.34707   -3144.9024   -2700.6695     609.6863    12062.884 
   11400    303.72073    219.55491   -3151.8303   -2700.0687    399.17957    12067.329 
   11450    299.46085    219.45401    -3148.467   -2703.0416    427.98864     12071.75 
   11500      302.091    219.45897   -3148.6325    -2699.295    264.04331    12076.129 
   11550     290.0617    219.17014   -3139.0046   -2707.5598    473.71059    12080.406 
   11600    303.53996    219.63648   -3154.5493   -2703.0566   -16.141472    12084.639 
   11650    290.68217    219.21105   -3140.3682   -2708.0005    242.14312    12088.651 
   11700    286.35588     219.0341   -3134.4701   -2708.5374    349.32943    12092.536 
   11750     309.2933    219.77269   -3159.0895   -2699.0392   -265.54005    12096.309 
   11800    296.54779     219.4727   -3149.0899   -2707.9975   -21.425382    12099.734 
   11850    291.44083     219.2833   -3142.7765   -2709.2804    15.212895    12102.882 
   11900    276.17587    218.85142   -3128.3806   -2717.5899    374.08663     12105.81 
   11950     290.4065    219.30609   -3143.5362   -2711.5786   -34.235667    12108.648 
   12000    297.69924     219.4423   -3148.0766   -2705.2715   -291.39907    12111.241 
   12050    290.22087    224.25995   -3141.9984   -2710.3168   -161.93493    12113.459 
   12100    294.97422    224.38537   -3146.1791   -2707.4273   -346.13421    12115.346 
   12150    300.90865    224.66013   -3155.3376   -2707.7588   -520.57675    12116.815 
   12200    300.70676    224.56827   -3152.2756   -2704.9971   -370.47407    12117.791 
   12250    288.67482    224.21152    -3140.384   -2711.0021   0.33258053    12118.349 
   12300    291.06165    224.26736   -3142.2452    -2709.313   -87.683947    12118.649 
   12350    291.79537    224.24285   -3141.4285    -2707.405   -100.11557    12118.688 
   12400    275.02639    223.77927   -3125.9756   -2716.8947    358.12928    12118.478 
   12450    288.67902    224.20788   -3140.2627   -2710.8745   -49.997267    12118.197 
   12500    290.81817    224.31005   -3143.6684   -2711.0984   -207.64345     12117.69 
   12550    298.40548    224.62097   -3154.0324   -2710.1768   -477.34929    12116.836 
   12600    287.57391    224.20598   -3140.1993   -2712.4549   -88.945306    12115.547 
   12650    275.41435    223.84063   -3128.0211   -2718.3631    311.26447    12113.995 
   12700    285.45137    224.08909   -3136.3029   -2711.7157    23.545396    12112.369 
   12750    299.75006    224.54148   -3151.3828   -2705.5273   -408.63978    12110.534 
   12800    291.70463    224.25985    -3141.995   -2708.1064   -213.34757    12108.305 
   12850    301.25707    224.52597   -3150.8657   -2702.7686   -421.69608     12105.72 
   12900    300.92876    224.55711   -3151.9037   -2704.2949   -333.10954    12102.718 
   12950       294.42    224.30742   -3143.5807   -2705.6533    19.106409    12099.331 
   13000    291.61834    224.22827   -3140.9423   -2707.1821    166.14719    12095.737 
   13050    288.26672    219.13279   -3137.7596   -2708.9847    236.37764    12092.025 
   13100    290.20877     219.1692   -3138.9733   -2707.3097    266.19339    12088.225 
   13150    300.09372    219.50702   -3150.2341   -2703.8674   -13.095319     12084.34 
   13200     310.7539    219.80452   -3160.1508   -2697.9279   -285.87023    12080.213 
   13250    292.84105    219.17837    -3139.279   -2703.7002      282.895    12075.758 
   13300     297.1518    219.30063   -3143.3544   -2701.3637    295.80585    12071.223 
   13350    285.81575    218.93594    -3131.198   -2706.0687     713.4251    12066.675 
   13400    297.09222    219.34294   -3144.7647   -2702.8625    457.89682    12062.245 
   13450    296.74995    219.31948   -3143.9828   -2702.5897    578.57651    12057.885 
   13500     303.1981    219.56518   -3152.1727   -2701.1885    432.99481    12053.612 
   13550    319.05244    219.99028   -3166.3426   -2691.7763    67.548834    12049.327 
   13600    292.63797    219.00572    -3133.524   -2698.2472    913.35236    12044.922 
   13650    304.24044    219.49907   -3149.9689   -2697.4343    581.76749    12040.703 
   13700    306.84411    219.60118   -3153.3726   -2696.9653    536.81623    12036.622 
   13750    299.68613    219.40582   -3146.8607   -2701.1003    822.65606    12032.617 
   13800    301.91767    219.47817   -3149.2722   -2700.1925    828.71755    12028.806 
   13850    303.57262    219.50094   -3150.0315   -2698.4902    830.74549    12025.232 
   13900    306.63384    219.56659   -3152.2196    -2696.125    842.67845    12021.882 
   13950    308.72346    219.75186   -3158.3954   -2699.1926    715.70906    12018.754 
   14000    311.59003    219.74414   -3158.1378   -2694.6713    670.05433    12015.774 
   14050    302.47069    224.41458   -3147.1527   -2697.2505    960.46851    12012.956 
   14100    307.32169    224.57987   -3152.6623   -2695.5446    830.25141    12010.408 
   14150    295.39105    224.22903   -3140.9678    -2701.596    1215.4926    12008.116 
   14200    303.66588    224.45755   -3148.5851   -2696.9051    1009.0911    12006.211 
   14250    299.36663    224.28277    -3142.759   -2697.4738    1065.1897    12004.648 
   14300    308.73234    224.54475   -3151.4918   -2692.2758    860.88263    12003.412 
   14350    312.92495    224.82111   -3160.7036   -2695.2515    781.08555    12002.408 
   14400    300.05827    224.39868   -3146.6225   -2700.3086    1141.8934    12001.615 
   14450    300.39471    224.46856   -3148.9518   -2702.1375    1131.4756     12001.18 
   14500    298.07103    224.41337   -3147.1124   -2703.7544    1249.1394    12001.149 
   14550     309.8707    224.69193   -3156.3976   -2695.4884    959.71646     12001.53 
   14600    296.53859    224.23476   -3141.1586   -2700.0799    1320.9895    12002.214 
   14650    298.57718     224.3143   -3143.8099   -2699.6989    1247.5014    12003.331 
   14700    298.25344    224.26312   -3142.1041   -2698.4747    1243.6507    12004.898 
   14750    305.44229    224.44263   -3148.0877   -2693.7654    1096.8199    12006.873 
   14800    291.88935    224.04929   -3134.9764   -2700.8131     1431.584    12009.224 
   14850    304.30368    224.46994   -3148.9979   -2696.3692    981.66681    12012.044 
   14900    309.23202    224.66862   -3155.6207   -2695.6615    716.31228    12015.156 
   14950    318.38162    224.97057   -3165.6857   -2692.1171    420.36301    12018.399 
   15000    303.43891    224.47686   -3149.2286   -2697.8862    792.45306    12021.666 
   15050     288.6982    228.98529   -3132.8431   -2703.4264     1161.914    12025.111 
   15100    296.59848     229.2994   -3143.3133   -2702.1456    859.72829     12028.92 
   15150    300.32797     229.3714   -3145.7133   -2698.9982    761.27694    12032.965 
   15200    283.88426    228.85454   -3128.4846   -2706.2283     1265.766    12037.224 
   15250     299.3386    229.31989   -3143.9963   -2698.7528    743.98002    12041.876 
   15300    306.32444    229.58245   -3152.7482   -2697.1138    473.37612    12046.691 
   15350    297.13973    229.31788   -3143.9295   -2701.9566    717.95983    12051.544 
   15400    304.16847    229.56708   -3152.2362   -2699.8086     461.6315    12056.504 
   15450    290.98086    229.19779   -3139.9263   -2707.1143    760.65547    12061.506 
   15500    304.71843    229.57648   -3152.5494   -2699.3039    290.50085    12066.637 
   15550    308.82334    229.68129   -3156.0431   -2696.6918    80.093894     12071.71 
   15600    298.70407    229.40045   -3146.6817    -2702.382    294.28395    12076.594 
   15650    298.82846     229.3751   -3145.8368   -2701.3521    273.00261     12081.37 
   15700    296.08442    229.22401   -3140.8005   -2700.3974    372.75763    12086.063 
   15750    295.13958    229.20882    -3140.294   -2701.2963    351.17508    12090.711 
   15800    296.21511    229.17073   -3139.0243   -2698.4267    277.48204    12095.299 
   15850    285.04503    228.91997   -3130.6657   -2706.6829    549.73735    12099.816 
   15900    281.88436    228.71933   -3123.9778   -2704.6961    641.65036    12104.383 
   15950    291.24203    228.89449   -3129.8165    -2696.616    303.39263    12109.044 
   16000    282.07925    228.67373   -3122.4578   -2702.8863    480.71284    12113.663 
   16050    284.01469    228.72223   -3124.0742   -2701.6239     442.9658    12118.292 
   16100    292.75053    229.00239   -3133.4129   -2697.9686    146.84757    12122.912 
   16150      294.833    229.13716   -3137.9053   -2699.3636    -30.82068    12127.379 
   16200    299.47138     229.2822   -3142.7401   -2697.2991   -190.43102    12131.593 
   16250    294.59877    229.02783   -3134.2608   -2696.0675    13.885937    12135.478 
   16300    292.84481    228.95818   -3131.9394   -2696.3549    71.693462    12139.122 
   16350    282.49146    228.62999   -3120.9998   -2700.8151    362.82168    12142.594 
   16400    282.02593    228.64777   -3121.5924   -2702.1002    315.31207    12146.004 
   16450    291.69784    228.89243   -3129.7477   -2695.8693   -97.890347     12149.35 
   16500    300.62371    229.15504   -3138.5015   -2691.3465   -407.08321     12152.41 
   16550    290.16028    228.72992   -3124.3307   -2692.7393   -2.7582002    12155.059 
   16600     293.7529    228.73409   -3124.4696   -2687.5344    23.787414    12157.458 
   16650    276.46573    228.18968   -3106.3226   -2695.1007    481.94903    12159.691 
   16700    305.95949    229.15207   -3138.4024   -2683.3108    -445.7902    12161.882 
   16750    311.21406    229.16857   -3138.9522   -2676.0449   -571.74494    12163.646 
   16800    296.43654    228.69837   -3123.2791   -2682.3522   -16.771297    12164.897 
   16850    295.32321    228.63488   -3121.1626   -2681.8917    96.967821     12165.89 
   16900    295.77364     228.6426   -3121.4198    -2681.479    63.846936    12166.705 
   16950    286.74569    228.29616   -3109.8721   -2683.3596     352.4615    12167.352 
   17000    295.61204    228.62327   -3120.7756    -2681.075    71.609923    12167.946 
   17050    307.68588    229.00149   -3133.3831   -2675.7237   -291.40139    12168.366 
   17100    309.98133    229.04746   -3134.9153   -2673.8416   -320.53551    12168.421 
   17150    304.87698    228.78029   -3126.0098   -2672.5284   -183.33444    12168.099 
   17200    294.17151     228.3684   -3112.2801   -2674.7222    140.25464    12167.473 
   17250    300.50286    228.48495    -3116.165   -2669.1897    21.517084    12166.692 
   17300    314.02785    228.92062   -3130.6875   -2663.5948   -278.58096    12165.708 
   17350    295.63214    228.24573    -3108.191   -2668.4606    440.38838    12164.426 
   17400    277.30884    227.58527   -3086.1756   -2673.6998    1109.0459    12163.173 
   17450     300.7458    228.32343   -3110.7811   -2663.4445    430.59119    12162.244 
   17500    302.25308    228.29635   -3109.8783   -2660.2998    404.62912    12161.394 
   17550    304.78772    228.38127   -3112.7089   -2659.3602    468.05598    12160.534 
   17600    296.22887    228.15087   -3105.0291   -2664.4111    671.56319    12159.739 
   17650    315.34984    228.81437   -3127.1458   -2658.0868     26.60266     12159.03 
   17700     301.3119    228.25153   -3108.3843   -2660.2057    454.96917    12158.185 
   17750    311.39303    228.62975   -3120.9917   -2657.8182    203.80393    12157.324 
   17800    312.04825    228.56766   -3118.9218   -2654.7737    263.76967    12156.385 
   17850    309.03003    228.42778   -3114.2594   -2654.6007     439.5909    12155.377 
   17900    313.57435    228.56758   -3118.9194   -2652.5013     282.1378    12154.367 
   17950    308.11855    228.35512   -3111.8374   -2653.5344    367.66678    12153.304 
   18000    309.04021    228.34213   -3111.4043   -2651.7304    460.49282    12152.221 
   18050    300.51603    228.10917   -3103.6389    -2656.644    772.47112    12151.199 
   18100    306.57832    228.23031   -3107.6769   -2651.6649    616.28472    12150.355 
   18150    303.88689    228.11903   -3103.9678   -2651.9591    725.60292    12149.653 
   18200    313.87559    228.58182   -3119.3942    -2652.528    345.40365    12149.105 
   18250    313.46173    228.62257   -3120.7523   -2654.5017    263.94127    12148.562 
   18300    319.05263    228.83484   -3127.8281   -2653.2615    72.568408    12147.932 
   18350      313.184    228.46759   -3115.5862   -2649.7487    421.17315    12147.146 
   18400    301.52049    228.15368   -3105.1226   -2656.6337    842.80134    12146.404 
   18450    309.66267    228.43409   -3114.4695   -2653.8698    583.64175    12145.863 
   18500    311.21501    228.45234    -3115.078   -2652.1693    452.73546     12145.43 
   18550    323.90503     228.9348   -3131.1601   -2649.3759    68.119145    12145.005 
   18600     311.0136    228.55002   -3118.3339   -2655.7247     480.9974    12144.434 
   18650    304.74568    228.35997   -3111.9989   -2658.7128    658.09919    12143.909 
   18700    314.12565    228.62323   -3120.7742   -2653.5361    395.72927    12143.507 
   18750    320.00583     228.8526   -3128.4199   -2652.4355    228.67951    12143.099 
   18800    317.30734     228.7611   -3125.3701   -2653.3995    317.46038    12142.601 
   18850    308.12708    228.40744   -3113.5814   -2655.2657      606.122    12142.062 
   18900    301.01064    228.20668   -3106.8895    -2659.159    844.69147    12141.626 
   18950    309.71297    228.55443    -3118.481   -2657.8064     513.6838    12141.403 
   19000    317.87515    228.86172   -3128.7241   -2655.9089      204.255    12141.246 
   19050    308.47346    228.58497   -3119.4989    -2660.668    491.52676    12141.011 
   19100    309.10621    228.61814   -3120.6047   -2660.8326    446.46359    12140.798 
   19150    317.00656    228.91131    -3130.377   -2658.8538    179.23739    12140.596 
   19200    309.39453    228.65833   -3121.9442   -2661.7433    485.47647    12140.298 
   19250     303.9799     228.5507   -3118.3565   -2666.2095    661.26456    12140.042 
   19300    309.66197     228.7419   -3124.7299   -2664.1311    454.87699    12139.902 
   19350    304.80714    228.59415   -3119.8049   -2666.4273    543.68312    12139.805 
   19400    305.42803    228.62436    -3120.812    -2666.511    535.57886    12139.782 
   19450     308.1955    228.75546    -3125.182   -2666.7646    408.54496    12139.811 
   19500    313.95951    228.96926   -3132.3088   -2665.3178    102.83592    12139.839 
   19550    317.54889    229.22099   -3140.6995   -2668.3696   -142.46516    12139.712 
   19600    308.24802    228.86134   -3128.7114   -2670.2158    177.81923    12139.317 
   19650    315.72681    229.05778   -3135.2593   -2665.6395   -17.576941    12138.763 
   19700    309.22753    228.82666   -3127.5553   -2667.6027    168.46724    12138.011 
   19750    303.64428    228.70207   -3123.4023   -2671.7544    318.17238    12137.124 
   19800    305.17303    228.83383   -3127.7943   -2673.8725    165.76261    12136.193 
   19850    304.27961    228.82402   -3127.4674   -2674.8745    191.60391    12135.163 
   19900     298.8274    228.62245   -3120.7482   -2676.2651    380.93138    12134.042 
   19950    309.55456    228.99463   -3133.1543   -2672.7154    44.900321     12132.88 
   20000    305.82996    228.90274   -3130.0914   -2675.1925    189.97494    12131.572 
   20050    306.30261    223.94514   -3131.5046   -2675.9027    279.83264    12130.153 
   20100     303.0263    223.91348   -3130.4492   -2679.7206    362.62638    12128.663 
   20150    312.00735     224.2351   -3141.1699   -2677.0826    116.64333    12127.133 
   20200    286.32563    223.33892   -3111.2973   -2685.4096    857.47021    12125.519 
   20250    305.52748    223.92553   -3130.8509   -2676.4019    385.32839    12124.067 
   20300      309.088    224.09594   -3136.5315   -2676.7865    251.35048    12122.625 
   20350    310.63185     224.1954   -3139.8466   -2677.8053     131.2446    12121.092 
   20400    312.95492    224.27126   -3142.3754   -2676.8787    29.752312    12119.418 
   20450    308.83039    224.14488   -3138.1626   -2678.8008     174.6306    12117.549 
   20500    307.82834    224.06432   -3135.4772   -2677.6059    328.10837    12115.544 
   20550     304.2178    224.02285   -3134.0951   -2681.5942    464.76728    12113.496 
   20600    297.37121    223.80985    -3126.995   -2684.6779     599.6777    12111.495 
   20650    303.72762    224.04697   -3134.8989   -2683.1271    293.59921    12109.584 
   20700    307.26648    224.18725   -3139.5749   -2682.5393    125.27806    12107.628 
   20750    303.68165    224.12977   -3137.6588   -2685.9554    297.06435    12105.528 
   20800    304.77184    224.24767    -3141.589   -2688.2639    354.23113    12103.364 
   20850    284.28775    223.55072   -3118.3573   -2695.5008    937.37226    12101.216 
   20900    298.85392    224.04148   -3134.7159   -2690.1934    429.95919    12099.302 
   20950    310.96065    224.45586   -3148.5288   -2685.9984    37.141254    12097.424 
   21000    296.68492    223.99471    -3133.157   -2691.8607    459.79216    12095.405 
   21050    304.63055    224.31699   -3143.8998    -2690.785    125.53778    12093.378 
   21100     316.6913    224.64829   -3154.9429   -2683.8886   -265.06672    12091.197 
   21150    300.65878    224.13019   -3137.6731    -2690.466     274.6702    12088.713 
   21200    291.15558    223.88367   -3129.4555   -2696.3836    653.61936    12086.162 
   21250    303.60264    224.32005   -3144.0015   -2692.4156    308.01331    12083.715 
   21300    300.85849    224.26978   -3142.3261   -2694.8219    373.93675     12081.26 
   21350    302.85128    224.44095   -3148.0317   -2697.5633    334.60633    12078.779 
   21400     284.4811    223.90749   -3130.2498   -2707.1057    786.97707    12076.322 
   21450    297.32434     224.3337   -3144.4567   -2702.2093    377.55701    12074.033 
   21500    292.38162      224.111   -3137.0335    -2702.138    538.85777    12071.779 
   21550    305.42229    224.47925   -3149.3084   -2695.0159    232.50602    12069.582 
   21600    303.95946    224.49067   -3149.6891   -2697.5724    247.84579    12067.316 
   21650    296.27904    224.33763   -3144.5876    -2703.895    428.23943    12064.978 
   21700    292.82115    224.20248   -3140.0826   -2704.5333    592.68503    12062.667 
   21750    295.07098    224.34649   -3144.8831   -2705.9874    552.58702    12060.469 
   21800    306.58129     224.6424   -3154.7466   -2698.7302    210.53731    12058.343 
   21850    302.42146    224.45071   -3148.3569   -2698.5279    302.18443    12056.156 
   21900    310.53826    224.75672   -3158.5572   -2696.6551    64.528129    12053.905 
   21950     303.2466    224.57306   -3152.4353   -2701.3789     345.7668    12051.495 
   22000    296.07969    224.29892   -3143.2972   -2702.9011    649.58169    12049.059 
   22050    308.01884    219.65304   -3155.1014   -2696.9467    361.54439    12046.727 
   22100    305.53598    219.63222   -3154.4074   -2699.9458    507.26399    12044.404 
   22150    291.64269    219.15587   -3138.5289   -2704.7325    939.44314    12042.161 
   22200     313.4125    220.00546   -3166.8486   -2700.6713    282.79439    12040.124 
   22250    304.42702    219.69049   -3156.3498   -2703.5376    554.85732    12038.072 
   22300    313.57543    219.98509   -3166.1696   -2699.7499    259.11676    12036.051 
   22350    306.23607    219.76629   -3158.8764   -2703.3734    462.49338    12033.978 
   22400    296.84201    219.52835   -3150.9451   -2709.4151     740.7597    12031.917 
   22450    303.16266    219.73631   -3157.8771   -2706.9456    599.92613    12029.999 
   22500    292.05412     219.4223   -3147.4099   -2713.0016    884.34463    12028.208 
   22550    299.94312    219.66003   -3155.3344   -2709.1917    609.03825    12026.648 
   22600    298.91343    219.56397   -3152.1322   -2707.5211    636.05175    12025.211 
   22650    287.31324     219.2166   -3140.5532   -2713.1965    1008.1378    12023.897 
   22700    299.29161    219.68073   -3156.0242   -2710.8506    618.06982    12022.856 
   22750    312.97459    220.19865   -3173.2882   -2707.7622    152.05039    12021.901 
   22800    301.45235    219.82655    -3160.885   -2712.4975    508.98839     12020.84 
   22850    307.39864     220.0148   -3167.1599   -2709.9277    347.94307    12019.781 
   22900    306.68514    219.99887   -3166.6291   -2710.4581    297.52382    12018.685 
   22950    311.36372    220.18074   -3172.6915   -2709.5616    133.59834    12017.503 
   23000    305.77721    219.99791   -3166.5971   -2711.7766    396.30966     12016.17 
   23050    295.72993    219.68894   -3156.2979    -2716.422    720.95739    12014.816 
   23100     299.1474     219.8285   -3160.9501    -2715.991    555.99596    12013.592 
   23150    297.37174    219.83836   -3161.2787   -2718.9608    526.25747    12012.428 
   23200     288.4745     219.5321     -3151.07    -2721.986    794.00114    12011.337 
   23250    302.67887    219.91745    -3163.915   -2713.7031    404.24003    12010.412 
   23300     294.3294    219.76038   -3158.6792   -2720.8866    545.52236    12009.508 
   23350    295.69719    219.84256   -3161.4186   -2721.5914    479.40303    12008.635 
   23400     296.7635    219.87206   -3162.4019   -2720.9887    414.68406    12007.795 
   23450    291.81147    219.86733   -3162.2443   -2728.1968     522.5236     12006.96 
   23500    291.77578    219.88908   -3162.9693    -2728.975     533.5339    12006.174 
   23550     291.7651    219.82919   -3160.9729   -2726.9944    509.71464    12005.462 
   23600    306.26598    220.29856   -3176.6185   -2721.0711    144.95073    12004.748 
   23650    282.00649    219.62685   -3154.2282   -2734.7649       839.72    12003.958 
   23700    292.55375    219.97195   -3165.7317   -2730.5801    560.23192    12003.328 
   23750    288.68566    219.87899   -3162.6332   -2733.2351    599.30161    12002.796 
   23800    294.84522    220.15963   -3171.9877   -2733.4278    373.79224    12002.346 
   23850     294.1574    220.17651   -3172.5504   -2735.0136    299.47538    12001.876 
   23900    299.86467     220.3553   -3178.5101   -2732.4842    104.02811    12001.324 
   23950    296.06711    220.30648   -3176.8826   -2736.5052    145.78243     12000.62 
   24000    298.62879    220.40747   -3180.2491   -2736.0614    109.03354    11999.767 
   24050    283.99277     219.9972   -3166.5732   -2744.1555    562.41581    11998.769 
   24100    280.75314    220.00037   -3166.6789   -2749.0799    628.84168    11997.809 
   24150    278.38367    219.90705   -3163.5683   -2749.4937    638.61736    11996.977 
   24200    289.34612    220.26002    -3175.334   -2744.9536    272.25158     11996.25 
   24250    292.25914    220.54342   -3184.7808   -2750.0675    13.061691    11995.449 
   24300    289.58622     220.4956   -3183.1867   -2752.4491    50.370393    11994.435 
   24350    281.24056    220.25596   -3175.1986   -2756.8746    261.69416    11993.243 
   24400    286.87299    220.45729   -3181.9097   -2755.2078     15.64539    11991.948 
   24450    282.93067    220.45758   -3181.9192   -2761.0813    73.783184     11990.46 
   24500    284.91967     220.4982   -3183.2732   -2759.4768    39.306833    11988.797 
   24550    285.51436    220.64373   -3188.1245   -2763.4435   -127.32055    11986.935 
   24600    279.28595    220.54924   -3184.9748   -2769.5581   -50.887074     11984.79 
   24650    275.32002    220.45869   -3181.9565   -2772.4388    121.31212    11982.426 
   24700    279.67097    220.70682   -3190.2272   -2774.2378   -32.966114    11979.915 
   24750    276.51051    220.64381   -3188.1269   -2776.8385   -22.099795    11977.206 
   24800    273.55489    220.56207   -3185.4023   -2778.5101    98.164372    11974.302 
   24850    279.51812    220.69656   -3189.8853   -2774.1233   -5.9671646    11971.244 
   24900    277.88371    220.66057   -3188.6857   -2775.3548    6.5913588    11967.993 
   24950    276.42608    220.58241   -3186.0805   -2774.9176    67.786006    11964.553 
   25000    280.72642    220.74455   -3191.4848   -2773.9256   -47.877012    11960.946 
   25050    279.63769     215.6954   -3189.8467   -2773.9069    77.762989    11957.136 
   25100    278.77903    215.66223   -3188.7411   -2774.0784    232.27956    11953.164 
   25150    270.40689    215.47484   -3182.4948   -2780.2851    530.43757    11949.126 
   25200    281.75464    215.80565   -3193.5217    -2774.433    223.66811    11945.143 
   25250    287.37695    216.08129   -3202.7098   -2775.2584    16.299753    11941.082 
   25300    279.60351    215.71586   -3190.5286   -2774.6395    358.01438    11936.864 
   25350    286.35612    215.94863   -3198.2878   -2772.3547    231.23907    11932.597 
   25400    291.14886    216.17633   -3205.8776   -2772.8158    70.941716    11928.247 
   25450    283.28656    215.90191   -3196.7304   -2775.3632    393.36933    11923.747 
   25500    288.38136    215.99441   -3199.8136   -2770.8682    447.51512    11919.244 
   25550    292.35791    216.10487   -3203.4955   -2768.6353    490.11712    11914.785 
   25600    271.62005    215.40521   -3180.1736   -2776.1593    1169.0898    11910.417 
   25650    294.43377    216.08882   -3202.9606   -2765.0127    553.34155    11906.384 
   25700    296.36749      216.165   -3205.5002    -2764.676    552.11146    11902.466 
   25750    283.36518    215.76133   -3192.0444   -2770.5602    979.77298    11898.636 
   25800    286.62641     215.8672   -3195.5732   -2769.2382    915.61287    11895.076 
   25850    290.75632    215.89328   -3196.4426   -2763.9646    891.60253    11891.781 
   25900    280.44273    215.55004   -3185.0015   -2767.8641    1241.6843    11888.769 
   25950    290.46798    215.92504   -3197.5012   -2765.4521    985.93137     11886.14 
   26000    293.78242    216.04478   -3201.4927   -2764.5136    911.52369    11883.824 
   26050    290.14368    220.87814   -3195.9379   -2764.3711    1044.3942    11881.777 
   26100    285.04103    220.77099   -3192.3662   -2768.3893    1236.0691    11880.048 
   26150    280.86832    220.57105   -3185.7018   -2767.9315     1423.146    11878.763 
   26200    289.50917    220.76688   -3192.2293   -2761.6063    1203.9525    11877.953 
   26250    290.34434    220.80113   -3193.3712    -2761.506    1158.5895    11877.562 
   26300    299.23266    221.01625   -3200.5416   -2755.4557    971.14238    11877.544 
   26350    291.08903    220.74005   -3191.3351   -2758.3623    1270.0484    11877.805 
   26400    293.15669    220.75736   -3191.9118   -2755.8635    1212.1475    11878.465 
   26450    300.31569    221.01273   -3200.4244   -2753.7276    998.83623    11879.521 
   26500    291.29883     220.7262   -3190.8735   -2757.5885     1318.073    11880.889 
   26550    290.23347    220.64293   -3188.0976   -2756.3973    1335.0333    11882.687 
   26600    292.91681    220.70209   -3190.0697   -2754.3782    1274.8818    11884.927 
   26650    281.58049    220.32645   -3177.5485   -2758.7188    1588.5142    11887.606 
   26700    309.44611    221.20044   -3206.6813   -2746.4036    729.17255    11890.784 
   26750     297.8716    220.75623   -3191.8743   -2748.8129    1080.7135    11894.157 
   26800     289.5289    220.42967   -3180.9892   -2750.3369     1323.527    11897.826 
   26850    296.48051     220.6127   -3187.0898   -2746.0976    1113.1951    11901.904 
   26900    289.74639    220.36306   -3178.7686   -2747.7928    1295.2577    11906.329 
   26950    300.98278     220.6554   -3188.5134   -2740.8243     911.8978    11911.127 
   27000    313.48341    221.02499    -3200.833   -2734.5502    540.40573    11916.147 
   27050    305.72924    220.74311   -3191.4371    -2736.688     805.0173    11921.207 
   27100    284.11516     220.0671   -3168.9032   -2746.3034    1372.4533    11926.435 
   27150    290.04194    220.23803   -3174.6009   -2743.1855    1148.5942    11932.069 
   27200     295.1129    220.38392   -3179.4639   -2740.5058     961.1611    11938.057 
   27250    299.98302    220.58489   -3186.1631   -2739.9611    703.56039     11944.27 
   27300    290.36437     220.2532   -3175.1067   -2743.2117    897.87413    11950.609 
   27350    284.67452    220.01067   -3167.0223   -2743.5905    1111.1041    11957.145 
   27400     285.2239    219.96899   -3165.6329   -2741.3839    1017.0029     11963.98 
   27450    301.59926    220.54411   -3184.8037   -2736.1977    307.25325    11971.052 
   27500    290.61236    220.11993   -3170.6642   -2738.4004    473.15332    11978.065 
   27550    294.83141    220.20608   -3173.5359   -2734.9965    367.99865    11985.039 
   27600    293.22059    220.11263   -3170.4209   -2734.2775    411.77979    11991.946 
   27650    288.14208     220.0283   -3167.6101   -2739.0206    469.90019    11998.797 
   27700     286.7063    219.89296   -3163.0988   -2736.6449    461.58437    12005.626 
   27750    290.14972    219.94703   -3164.9009   -2733.3252    321.28934    12012.418 
   27800    299.44648    220.23489   -3174.4965   -2729.0925    80.580243      12019.1 
   27850    294.27561    219.99004   -3166.3346   -2728.6219    225.17981    12025.586 
   27900    301.74514    220.26568   -3175.5227   -2726.6997   -20.467778    12031.877 
   27950    286.50378    219.71257   -3157.0857    -2730.933    392.32777     12037.93 
   28000    290.11657    219.83917   -3161.3056   -2729.7791    218.47446    12043.875 
   28050    297.93523    215.03385    -3167.795   -2724.6389   -24.828824    12049.659 
   28100    294.89555    214.90047   -3163.3489   -2724.7141    65.189355    12055.174 
   28150     297.1671    214.88626   -3162.8753   -2720.8617   -30.190514    12060.412 
   28200    298.69524    215.02607   -3167.5356   -2723.2491    -221.0843    12065.348 
   28250    296.13744    214.88535   -3162.8449   -2722.3629    -223.1244    12069.898 
   28300    298.78726    215.03022    -3167.674   -2723.2506   -385.93584    12074.038 
   28350    299.90419    215.08654   -3169.5514   -2723.4666   -464.44972    12077.702 
   28400    288.51928    214.64212   -3154.7374   -2725.5869   -114.27458    12080.869 
   28450    298.44271    214.93772   -3164.5907   -2720.6798   -401.61219    12083.668 
   28500    291.18244    214.64856   -3154.9521   -2721.8403   -337.32822    12086.021 
   28550    302.48126    215.00361   -3166.7872   -2716.8692   -692.86223      12087.9 
   28600    297.24452    214.74775   -3158.2582   -2716.1295   -405.67347    12089.184 
   28650    294.71542    214.59968   -3153.3228   -2714.9559   -177.68275    12089.979 
   28700     302.6011     214.9025   -3163.4168   -2713.3205   -394.06099    12090.377 
   28750     295.7692    214.64171   -3154.7238   -2714.7895   -125.60663     12090.33 
   28800    286.18726    214.19929   -3139.9762   -2714.2943    252.49619    12089.986 
   28850    295.60402     214.6023   -3153.4101   -2713.7216   -67.405513    12089.486 
   28900    292.16234    214.44888   -3148.2958   -2713.7265   -2.4737236    12088.735 
   28950    309.21072    214.91397   -3163.7989   -2703.8714   -393.54628    12087.689 
   29000    294.29943    214.45843   -3148.6143   -2710.8662   -3.2651819    12086.231 
   29050    311.63818    219.98686   -3166.2286   -2702.6904   -503.80489    12084.466 
   29100    300.39293    219.62631   -3154.2104   -2707.3987   -201.79671    12082.259 
   29150    303.20627    219.70708   -3156.9028   -2705.9064   -232.68976    12079.678 
   29200    298.94018    219.54959    -3151.653   -2707.0021   -17.000429    12076.752 
   29250     293.8918    219.41041   -3147.0136   -2709.8718    171.24355    12073.591 
   29300    296.25901    219.45377    -3148.459   -2707.7961    110.26025    12070.297 
   29350    302.64152    219.66762   -3155.5873   -2705.4309     1.937597    12066.832 
   29400    297.58406    219.52418    -3150.806   -2708.1722    270.75202    12063.172 
   29450    295.19048    219.44028   -3148.0094   -2708.9359     376.0754    12059.447 
   29500    297.17858    219.43955    -3147.985   -2705.9544    333.97297    12055.711 
   29550    315.25237    220.11149    -3170.383    -2701.469   -102.69885    12051.892 
   29600    294.62686    219.48475   -3149.4918   -2711.2567    539.04518    12047.875 
   29650     295.6737    219.45164    -3148.388   -2708.5958    532.69585    12043.902 
   29700    299.90258    219.60541   -3153.5135   -2707.4312    437.14451    12039.978 
   29750    301.29547    219.58782   -3152.9273   -2704.7731    465.77199    12036.083 
   29800    309.86786    219.75788   -3158.5958   -2697.6909    260.85247    12032.213 
   29850    312.49618    219.86216    -3162.072   -2697.2576    243.42157    12028.265 
   29900    298.92888    219.37608   -3145.8693   -2701.2353     762.2535    12024.254 
   29950    301.49311    219.46789   -3148.9297   -2700.4815    785.03945    12020.408 
   30000     313.2262    219.89569   -3163.1898   -2697.2896    493.78385    12016.745 
   30050     305.8697    214.78202   -3159.4008   -2704.4428    756.57773    12013.138 
   30100    309.94148    214.89266   -3163.0888   -2702.0743    609.25409    12009.674 
   30150    316.10871    215.05679   -3168.5596   -2698.3718    372.17309    12006.294 
   30200     306.0025    214.75025   -3158.3417   -2703.1861     775.1806    12002.894 
   30250     298.4346    214.53698   -3151.2327   -2707.3338    1106.6952    11999.671 
   30300    322.59823    215.24022   -3174.6738   -2694.8334    475.11408     11996.73 
   30350    313.18496     214.8928   -3163.0933   -2697.2544    793.89114    11993.847 
   30400    302.07204    214.61103   -3153.7011   -2704.3919     1220.342    11991.145 
   30450      302.612     214.6546   -3155.1534    -2705.041    1172.0441    11988.812 
   30500    308.19983    214.76124   -3158.7081   -2700.2842    898.41872    11986.852 
   30550    320.05576    215.24032   -3174.6772   -2698.6185    485.26493    11985.108 
   30600    320.79055    215.23278   -3174.4261   -2697.2745    562.27978    11983.386 
   30650    313.12505    214.94358    -3164.786   -2699.0362    866.85509    11981.719 
   30700    306.53174    214.88772   -3162.9241   -2706.9813    964.21882    11980.236 
   30750    295.86023    214.55187   -3151.7289   -2711.6592    1271.5245    11979.022 
   30800    308.88891    214.96505   -3165.5016   -2706.0528     985.2864    11978.193 
   30850    307.19407    214.86173   -3162.0578   -2705.1299    1064.7159    11977.654 
   30900    308.47077    215.05934   -3168.6447   -2709.8178    873.75317    11977.403 
   30950    312.00994    215.15768   -3171.9225   -2707.8314    750.08587    11977.349 
   31000    309.25909    215.03198   -3167.7328   -2707.7334    894.79139    11977.439 
   31050    315.50512    210.23813   -3174.6042   -2705.3143    753.37176    11977.721 
   31100    309.34003    210.17292   -3172.4307   -2712.3108    888.66319    11978.118 
   31150     310.2643    210.20004   -3173.3346   -2711.8399    868.03274     11978.68 
   31200    323.49056    210.57507   -3185.8357    -2704.668    557.53637    11979.392 
   31250     307.2479    210.11702   -3170.5674   -2713.5595    984.24781    11980.156 
   31300    305.55483    210.07035   -3169.0118   -2714.5221    866.64478    11981.133 
   31350    328.43184    210.74712   -3191.5707   -2703.0532    190.35677    11982.244 
   31400    295.77199      209.838   -3161.2667   -2721.3283    1025.7656    11983.259 
   31450    314.21775      210.367   -3178.9001    -2711.525    535.74587    11984.447 
   31500    294.45484    209.85606   -3161.8686   -2723.8893    902.60763    11985.696 
   31550     291.5486    209.81278   -3160.4262   -2726.7697     914.3623    11987.128 
   31600    312.32692    210.38168   -3179.3893   -2714.8266     362.3397    11988.753 
   31650     309.1094    210.30683   -3176.8945   -2717.1177    405.39766    11990.326 
   31700    308.95431    210.41782   -3180.5939   -2721.0477    308.61248    11991.831 
   31750    299.34093    210.09696   -3169.8987   -2724.6518    549.70504    11993.257 
   31800    307.67138    210.22114    -3174.038   -2716.4002    382.88416    11994.663 
   31850    298.29307    209.99502   -3166.5006   -2722.8123    602.79628    11996.024 
   31900    307.05764    210.32661   -3177.5535   -2720.8285    370.96394    11997.384 
   31950    294.30663     209.9641   -3165.4699   -2727.7111    672.91246    11998.692 
   32000    305.57403    210.40127   -3180.0423    -2725.524    252.33873    12000.029 
   32050    290.81618    204.96698   -3165.5659   -2732.9989    566.16962    12001.273 
   32100    311.98273    205.68283   -3189.4277    -2725.377    -14.36539    12002.462 
   32150    320.76655    205.95858   -3198.6195   -2721.5035   -226.22746    12003.379 
   32200    296.40033    205.19746   -3173.2487   -2732.3757    447.84711    12003.938 
   32250    308.61765     205.5297   -3184.3233   -2725.2779    62.461922    12004.371 
   32300    302.45799    205.37134   -3179.0448   -2729.1615    139.00203    12004.583 
   32350    288.37054    205.01347   -3167.1158   -2738.1865    402.73881    12004.594 
   32400     305.4123    205.48955    -3182.985   -2728.7074   -95.960252    12004.496 
   32450    313.09206    205.67662   -3189.2206   -2723.5199   -271.52128    12004.082 
   32500    300.64706    205.25363    -3175.121   -2727.9313    90.211898    12003.269 
   32550    310.29585    205.56907   -3185.6357   -2724.0941   -181.13903    12002.171 
   32600    303.72635    205.30672   -3176.8907   -2725.1208     -26.2501     12000.73 
   32650    299.83625    205.24074   -3174.6913   -2728.7076    125.32386    11998.995 
   32700    307.24363     205.3933   -3179.7765   -2722.7749    75.083868    11997.033 
   32750    307.63497    205.52552   -3184.1841   -2726.6004    11.267845    11994.834 
   32800    306.15947     205.5308   -3184.3601   -2728.9711    142.36064    11992.358 
   32850    300.09319    205.38371   -3179.4571   -2733.0912    381.00378     11989.69 
   32900     298.8396    205.26914    -3175.638   -2731.1367    428.38067    11986.943 
   32950    303.28417    205.50569    -3183.523   -2732.4108     263.9815    11984.134 
   33000    308.72428    205.66762   -3188.9207   -2729.7167    107.49334    11981.179 
   33050    286.57572    200.06129   -3168.7097     -2742.45     682.9367    11978.043 
   33100    300.56946    200.46353   -3182.1177   -2735.0434    299.03093    11974.931 
   33150    305.98577    200.65838   -3188.6126   -2733.4819    105.42665    11971.703 
   33200    315.50234    200.98167   -3199.3891   -2730.1033   -158.45682    11968.224 
   33250    296.17298    200.42911   -3180.9703   -2740.4354    433.44569     11964.42 
   33300    297.74268    200.46322   -3182.1074   -2739.2377    457.00251    11960.534 
   33350    319.12578    201.10243   -3203.4143   -2728.7389   -90.161693    11956.579 
   33400    291.92727    200.30862   -3176.9541   -2742.7344    753.15717    11952.362 
   33450    299.76891    200.59795   -3186.5984   -2740.7148    700.82923    11948.197 
   33500    304.03493    200.70595   -3190.1984   -2737.9695    656.30028    11944.144 
   33550    312.67261    201.07284   -3202.4281   -2737.3513    330.45838    11940.121 
   33600    298.73695    200.61659   -3187.2198   -2742.8712    684.61697    11936.032 
   33650    304.44102    200.81033   -3193.6777   -2740.8448     486.2151    11931.977 
   33700    315.87171    201.24032   -3208.0107   -2738.1755     174.7395    11927.882 
   33750    304.91423    200.87701   -3195.9003   -2742.3635    553.61469    11923.636 
   33800    298.86542    200.76288   -3192.0961   -2747.5565    684.34339    11919.377 
   33850    317.35815    201.22212   -3207.4041   -2735.3579    256.17381    11915.161 
   33900    305.20893    200.89402   -3196.4675   -2742.4923    634.97364    11910.831 
   33950    310.91007    201.13561   -3204.5202   -2742.0651     501.1155    11906.511 
   34000    295.24987    200.61464   -3187.1545   -2747.9927     1012.653    11902.201 
   34050    293.20391    205.62678   -3187.5594   -2751.4408      1111.27    11898.124 
   34100    303.24981    205.89481   -3196.4938   -2745.4326    827.92407    11894.367 
   34150    300.57583    205.88495   -3196.1651   -2749.0813    855.24009    11890.785 
   34200    305.93404    206.05912   -3201.9706   -2746.9169     808.9458    11887.358 
   34250    291.65178    205.72181    -3190.727   -2756.9171     1269.259    11884.117 
   34300     306.3123    206.12115   -3204.0384   -2748.4221    938.69525    11881.209 
   34350    291.89867    205.68945   -3189.6482   -2755.4711    1342.0474    11878.562 
   34400    303.90042    206.12099   -3204.0331   -2752.0042    1037.9689      11876.3 
   34450    309.53248    206.30898   -3210.2993   -2749.8932     837.5243    11874.306 
   34500     291.0236    205.75694   -3191.8979   -2759.0224    1304.0806    11872.507 
   34550     295.2194    206.02464   -3200.8215    -2761.705    1090.7199    11871.098 
   34600    304.48275    206.33908   -3211.3028   -2758.4077    808.98374    11869.969 
   34650    295.85734    206.09641   -3203.2138   -2763.1484    1070.3143    11869.006 
   34700    304.08283    206.27627    -3209.209   -2756.9088    831.42399    11868.298 
   34750    296.77771     206.1177   -3203.9235   -2762.4891    960.54952    11867.777 
   34800    302.66142    206.28904   -3209.6348   -2759.4489    774.05868    11867.458 
   34850    301.80661    206.45487   -3215.1625    -2766.248     619.7311    11867.267 
   34900    289.17432    206.11684   -3203.8946   -2773.7697    873.60883    11867.153 
   34950    301.30881    206.41508   -3213.8359   -2765.6619    587.32192    11867.183 
   35000    306.53102     206.5223     -3217.41   -2761.4683    504.91419    11867.255 
   35050    296.41223    206.16204   -3205.4013   -2764.5106    835.73579    11867.346 
   35100     301.1211    206.39942   -3213.3139   -2765.4191    646.77671    11867.554 
   35150    291.64179    206.16111   -3205.3702   -2771.5751    920.49386    11867.844 
   35200    296.19073    206.36404   -3212.1347   -2771.5735    809.51204    11868.317 
   35250    293.36669    206.29216   -3209.7387    -2773.378    811.42068     11868.96 
   35300    284.38138    206.00248   -3200.0827   -2777.0869    1044.4554    11869.777 
   35350    287.52084    206.12204   -3204.0679   -2776.4025    957.56623    11870.825 
   35400     286.6672    206.07748   -3202.5827   -2776.1869     912.5003    11872.119 
   35450     294.6906    206.29988   -3209.9959    -2771.666     652.8498    11873.603 
   35500    292.23777    206.31834   -3210.6114   -2775.9299    646.74745    11875.155 
   35550    298.84621    206.56257   -3218.7523   -2774.2412    378.10217    11876.756 
   35600    290.40156    206.28855   -3209.6183    -2777.668    543.00572    11878.315 
   35650    292.82728    206.32355    -3210.785   -2775.2266    445.22446    11879.866 
   35700    296.20579    206.46205   -3215.4015   -2774.8178    308.29689    11881.369 
   35750    277.34281    205.89743    -3196.581   -2784.0546    851.32702    11882.806 
   35800    288.66996    206.31511   -3210.5036   -2781.1289    563.78969     11884.37 
   35850    286.28622    206.24727   -3208.2425   -2782.4134    584.20412        11886 
   35900    308.61313    206.88206   -3229.4022   -2770.3635    -26.67139    11887.625 
   35950    282.42706    206.07402   -3202.4673   -2782.3785    713.11416    11889.036 
   36000    279.05047    206.00038   -3200.0128   -2784.9464    736.84626    11890.512 
   36050    312.67126    202.00775   -3233.5916   -2768.5168   -212.18882    11892.044 
   36100     288.4812    201.26247   -3208.7491   -2779.6552    459.17554    11893.259 
   36150    296.74828    201.55281   -3218.4269   -2777.0364    199.57571    11894.373 
   36200    293.27723    201.38022   -3212.6741   -2776.4464    317.62391    11895.326 
   36250    283.80237    201.01563   -3200.5209   -2778.3864    699.14013    11896.164 
   36300    286.58719    201.20858   -3206.9528   -2780.6761    601.88434    11897.076 
   36350    296.45745     201.5091     -3216.97    -2776.012     289.3421    11897.995 
   36400    294.01353     201.4039   -3213.4634   -2776.1406    346.13954    11898.786 
   36450    295.80968    201.45608   -3215.2026   -2775.2081    255.73195    11899.445 
   36500     289.9529    201.22974    -3207.658   -2776.3751    404.67936    11899.976 
   36550    292.30354    201.33773   -3211.2577   -2776.4784    365.40346    11900.419 
   36600    292.07062     201.3343   -3211.1433   -2776.7104    368.00261    11900.775 
   36650    292.79645     201.3564   -3211.8801   -2776.3675    309.96914    11901.049 
   36700    298.33239    201.42417   -3214.1391   -2770.3923    209.98177    11901.189 
   36750    300.32985    201.50138   -3216.7125   -2769.9946    166.84599    11901.143 
   36800    294.89763    201.31714   -3210.5713   -2771.9335     358.4798    11900.902 
   36850    285.19878    200.99065   -3199.6883   -2775.4768    619.07444    11900.572 
   36900    294.68632    201.22794    -3207.598   -2769.2744    416.14522     11900.25 
   36950    308.07385    201.65167   -3221.7223   -2763.4858    114.39489    11899.855 
   37000    298.13884    201.24534    -3208.178   -2764.7191    404.15911    11899.263 
   37050    300.67974    201.22662    -3207.554   -2760.3157    384.59418    11898.565 
   37100    290.30547    200.75793   -3191.9312   -2760.1238    819.23034    11897.834 
   37150    304.17199    201.19508   -3206.5026   -2754.0699    565.84292    11897.175 
   37200    299.39633    200.98134   -3199.3781   -2754.0488    756.46167     11896.55 
   37250     296.3075    200.80541   -3193.5137   -2752.7788    1012.8469    11896.031 
   37300    303.29894    200.95742   -3198.5808   -2747.4466    954.11668    11895.717 
   37350    298.42999     200.7957   -3193.1899   -2749.2979    1104.0666    11895.627 
   37400    311.74349    201.12721   -3204.2403   -2740.5455    785.24009    11895.812 
   37450    306.16052    200.92734   -3197.5778   -2742.1873    977.70946    11896.148 
   37500     314.2625    201.13776   -3204.5919   -2737.1503    852.41055    11896.656 
   37550    313.95476    201.05769   -3201.9229    -2734.939    922.83914    11897.316 
   37600    312.68787    201.02614   -3200.8715   -2735.7719     971.1192    11898.155 
   37650    311.49044    200.91101   -3197.0335   -2733.7151    938.20412    11899.203 
   37700    300.35805    200.54366   -3184.7888   -2738.0289    1192.6567    11900.449 
   37750     310.4448    200.80568   -3193.5228   -2731.7597    936.22156    11901.972 
   37800    316.79077    201.01786   -3200.5953   -2729.3931    700.11227    11903.678 
   37850    322.59478    201.08807   -3202.9358   -2723.1005    609.14273    11905.446 
   37900    303.93164    200.58993    -3186.331   -2734.2557    1087.6792    11907.257 
   37950    304.13153    200.50456   -3183.4853   -2731.1127    1119.5671    11909.318 
   38000    325.60677    201.02406    -3200.802   -2716.4866    539.92583    11911.624 
   38050    318.83684     195.8037   -3193.4567   -2719.2111    757.93575    11913.922 
   38100    311.12913    195.54065   -3184.6884   -2721.9074    1013.2334    11916.287 
   38150    318.24855    195.74673   -3191.5578   -2718.1872    786.18714    11918.839 
   38200    312.84607     195.7169   -3190.5635   -2725.2286    876.10216    11921.503 
   38250    328.25321    196.15804   -3205.2679   -2717.0161    497.89171    11924.264 
   38300    302.18778     195.3271   -3177.5702   -2728.0887    1127.0445    11927.048 
   38350    325.16659    196.07144   -3202.3814   -2718.7207     522.0213    11930.015 
   38400    306.95888    195.50486   -3183.4952   -2726.9171    933.48785    11932.998 
   38450    315.80249    195.82223   -3194.0745   -2724.3422     658.0733    11936.095 
   38500    329.50931     196.2841   -3209.4699   -2719.3498    304.98872    11939.207 
   38550    323.38924    196.06133   -3202.0442   -2721.0272    469.11754    11942.179 
   38600    310.79925    195.66517   -3188.8391   -2726.5488    765.28062    11945.076 
   38650    308.48647    195.56597   -3185.5325   -2726.6822    786.26449    11948.036 
   38700    310.46715    195.68733   -3189.5777   -2727.7814    556.43647    11951.087 
   38750     321.6646    196.01195   -3200.3983   -2721.9466    228.46704    11954.096 
   38800    304.86665     195.5826   -3186.0867   -2732.6206    542.61723    11956.934 
   38850    306.64343    195.68646   -3189.5486   -2733.4398    381.84631    11959.717 
   38900    312.16735    195.85309   -3195.1029   -2730.7776    154.14729    11962.381 
   38950    308.00389    195.77464   -3192.4879   -2734.3555    213.99451    11964.816 
   39000    299.29269    195.53672   -3184.5574   -2739.3822    411.90697    11967.053 
   39050    316.14637     196.1023     -3203.41   -2733.1662   -147.22911    11969.157 
   39100      322.133    196.27989   -3209.3295   -2730.1811   -369.61619    11970.886 
   39150    304.43371    195.86699   -3195.5665   -2742.7444   -23.027072    11972.115 
   39200    315.15263    196.05054   -3201.6848   -2732.9192   -309.97515    11972.973 
   39250    303.58672    195.76763   -3192.2542   -2740.6919   -49.620355    11973.378 
   39300    296.12296    195.64259   -3188.0863   -2747.6259    99.102845    11973.424 
   39350    295.83026    195.61822    -3187.274   -2747.2489    66.916819    11973.217 
   39400    306.44545    195.89118   -3196.3725   -2740.5581   -207.96755    11972.722 
   39450    307.41976    196.01057   -3200.3522   -2743.0886   -254.91281    11971.809 
   39500      295.443    195.78715   -3192.9051    -2753.456    -15.94764    11970.466 
   39550     305.4201    195.99311   -3199.7703    -2745.481   -242.25922    11968.779 
   39600    293.51101    195.75836   -3191.9452   -2755.3698    21.892086    11966.686 
   39650    292.94953    195.76107   -3192.0358   -2756.2955    42.262714    11964.269 
   39700    291.88512    195.70368   -3190.1228   -2755.9658     136.0302    11961.568 
   39750    300.76566    195.95053    -3198.351   -2750.9849     37.86461    11958.612 
   39800    290.49397    195.70498    -3190.166   -2758.0782    358.95148    11955.397 
   39850    301.49089    196.04993   -3201.6644   -2753.2195    -5.583313    11952.015 
   39900    290.70921    195.79093   -3193.0311   -2760.6231    145.22325    11948.362 
   39950     303.0497    196.14532   -3204.8439   -2754.0805   -94.033232    11944.447 
   40000    306.91008    196.35164   -3211.7214   -2755.2159   -107.52036    11940.193 
   40050    300.48069    196.15556   -3205.1853   -2758.2431    62.946942    11935.574 
   40100    304.62596     196.3148   -3210.4935   -2757.3854   -41.511413    11930.648 
   40150    297.13548    196.05505   -3201.8352   -2759.8687    239.66541    11925.421 
   40200    304.12332    196.25262   -3208.4207   -2756.0603     136.0363    11919.981 
   40250    293.14522    196.03574   -3201.1912   -2765.1599    408.56109    11914.333 
   40300    305.67067    196.45634   -3215.2113   -2760.5493    79.086828    11908.558 
   40350    296.98682    196.15994   -3205.3312   -2763.5858    307.06109    11902.549 
   40400    286.59878    195.90573   -3196.8576   -2770.5636    608.15338    11896.407 
   40450    302.04493    196.36055   -3212.0183   -2762.7494    340.62138    11890.253 
   40500    293.28612    196.19124   -3206.3748   -2770.1339    651.27668    11884.011 
   40550    306.49151    196.50049   -3216.6831   -2760.8002    389.55637    11877.778 
   40600    304.38594     196.5132   -3217.1068   -2764.3558    468.53121    11871.482 
   40650    299.36782    196.41345   -3213.7817   -2768.4947    707.66164    11865.122 
   40700    302.18736    196.54941   -3218.3138    -2768.833    700.55239    11858.805 
   40750    303.75451    196.57799   -3219.2663   -2767.4544    616.79444    11852.565 
   40800    311.02711    196.84215   -3228.0715   -2765.4423    552.10905    11846.325 
   40850    304.45324    196.62592   -3220.8639   -2768.0127    877.43818    11840.093 
   40900    306.39864    196.64387   -3221.4625   -2765.7177    880.28274    11833.996 
   40950    307.86614     196.6802   -3222.6732   -2764.7456    910.37918    11828.031 
   41000    296.38899    196.35763   -3211.9209   -2771.0647    1347.0745    11822.248 
   41050    292.60689    196.24605   -3208.2016    -2772.971    1482.1783     11816.85 
   41100    311.81086    196.82224    -3227.408    -2763.613    946.38854    11811.887 
   41150    315.10157    197.01112   -3233.7039   -2765.0142    834.52149    11807.128 
   41200    306.81047    196.88635   -3229.5449   -2773.1875    1007.4006    11802.485 
   41250    303.68508    196.68762   -3222.9206    -2771.212    1173.3358    11798.057 
   41300    310.06066    196.92961   -3230.9871   -2769.7953    1076.8415    11793.914 
   41350    305.40046    196.85327   -3228.4422   -2774.1821     1300.189    11790.031 
   41400    311.69832    197.11484   -3237.1613   -2773.5337    1130.2937    11786.469 
   41450     310.5222    197.00872    -3233.624   -2771.7458    1249.3501    11783.195 
   41500    291.44139    196.47731   -3215.9103   -2782.4133    1796.4433    11780.282 
   41550    305.99928    196.92125   -3230.7084   -2775.5577    1400.1197    11777.919 
   41600    310.14584    197.01887   -3233.9624    -2772.644    1224.5789    11775.985 
   41650    294.94895    196.59788   -3219.9292    -2781.215    1619.4222    11774.392 
   41700    298.80513     196.7373   -3224.5765   -2780.1265    1502.6175    11773.289 
   41750    308.71562    197.08997   -3236.3324   -2777.1413    1179.9184    11772.639 
   41800    305.39687     197.0523   -3235.0766   -2780.8219    1218.2166    11772.293 
   41850    291.82898    196.67823   -3222.6078   -2788.5343    1562.8888     11772.29 
   41900    312.61277    197.20727   -3240.2422   -2775.2544    1071.9335    11772.738 
   41950    294.73644    196.77824   -3225.9413   -2787.5432    1507.9756    11773.482 
   42000    300.37247    196.93375   -3231.1251   -2784.3438    1319.6278    11774.669 
   42050    312.59387    197.38193   -3246.0645   -2781.1048    941.22102    11776.215 
   42100    293.73608    196.66686   -3222.2285   -2785.3184     1534.198    11777.991 
   42150    304.37645    197.04394    -3234.798   -2782.0611     1111.576    11780.195 
   42200    310.49407    197.24565   -3241.5217   -2779.6853    864.09887    11782.666 
   42250    282.45369    196.43479    -3214.493   -2794.3646    1646.4136     11785.33 
   42300    285.71234    196.55733   -3218.5778   -2793.6024    1498.2692     11788.49 
   42350    314.25065    197.46246   -3248.7487   -2781.3247    557.74543    11792.068 
   42400    298.06966    196.98967   -3232.9891   -2789.6331    825.49867    11795.702 
   42450    300.23609    197.09369   -3236.4563   -2789.8779    710.90987    11799.445 
   42500    314.76276    197.45782   -3248.5941   -2780.4083    370.65934    11803.218 
   42550    277.68337    196.40835   -3213.6116   -2800.5787    1257.3049    11806.948 
   42600    291.48898    196.89356   -3229.7852   -2796.2175    869.28791    11810.956 
   42650    287.17039    196.72404   -3224.1346   -2796.9904    998.17986    11815.155 
   42700      286.481    196.76915   -3225.6385   -2799.5197    954.51104    11819.563 
   42750    289.75946    196.85688   -3228.5625   -2797.5673    758.17676    11824.184 
   42800    296.92444     196.9775   -3232.5835   -2790.9309    579.62484      11828.9 
   42850    292.78052    196.84137   -3228.0458    -2792.557    637.63605    11833.631 
   42900    298.89999     197.0479     -3234.93   -2790.3389    362.74335    11838.392 
   42950    299.37134    197.06864   -3235.6214   -2790.3292    298.78687    11843.047 
   43000    288.09423     196.6862   -3222.8733    -2794.355    475.16614    11847.568 
   43050    291.67605    201.79545   -3226.5149   -2792.6688    298.87766    11852.033 
   43100    270.46683    201.15651   -3205.2169    -2802.918    801.94849    11856.423 
   43150    283.25985    201.58131   -3219.3769   -2798.0494    377.14493      11860.9 
   43200     292.9983    201.78562   -3226.1875   -2790.3747    136.39979     11865.32 
   43250    282.33476    201.48406   -3216.1355   -2796.1839    438.32601    11869.559 
   43300    296.85183     201.8146   -3227.1535   -2785.6089    91.424284    11873.703 
   43350    289.86818    201.64178   -3221.3925   -2790.2356    192.89293     11877.65 
   43400     289.4968    201.61204   -3220.4014   -2789.7968    139.94402    11881.406 
   43450    286.21282    201.51027    -3217.009   -2791.2891    211.93728    11884.965 
   43500    288.10102    201.56695   -3218.8982   -2790.3698    132.77186    11888.345 
   43550    282.74564    201.49255   -3216.4182   -2795.8555    219.39773    11891.529 
   43600    294.87779    201.81133   -3227.0445   -2788.4361   -48.897922    11894.521 
   43650    294.33138    201.79296   -3226.4321   -2788.6364    9.4203509    11897.217 
   43700    277.66875    201.21379   -3207.1262    -2794.115    430.62002    11899.656 
   43750    278.28358    201.15894   -3205.2981   -2791.3724    384.33771    11902.031 
   43800    292.47773    201.59533   -3219.8444   -2784.8059   -28.459682    11904.311 
   43850    290.05995    201.53319   -3217.7729   -2786.3307   -56.320394    11906.327 
   43900    290.97774    201.50778   -3216.9258   -2784.1185    -69.02324    11908.038 
   43950    291.53884    201.52273   -3217.4244   -2783.7825   -91.430685    11909.431 
   44000    287.41081    201.40896   -3213.6321   -2786.1303    82.948955      11910.5 
[...]
   89400    299.91936    215.07355   -3169.1184   -2723.0111    570.27792    11985.635 
   89450    301.34693    215.19284   -3173.0948    -2724.864    508.99916     11985.35 
   89500    306.10902    215.25307   -3175.1023   -2719.7883     461.5557    11985.077 
   89550    304.70175    215.15571   -3171.8568   -2718.6361    561.25495    11984.795 
   89600    300.76272    215.08437   -3169.4791   -2722.1173    623.96021    11984.551 
   89650     294.3108    214.91662   -3163.8874   -2726.1224    788.56846    11984.398 
   89700    292.15368    214.90529   -3163.5096   -2728.9531    884.35253    11984.397 
   89750    296.05651    214.88479   -3162.8264   -2722.4647    841.29349     11984.61 
   89800    306.06178    215.06572   -3168.8574   -2713.6137    655.15214    11985.015 
   89850    314.92041    215.30866   -3176.9555   -2708.5352    427.00617    11985.507 
   89900     307.7673    215.11569   -3170.5232   -2712.7426    612.62569     11985.99 
   89950     307.9767    215.10813   -3170.2708   -2712.1788    683.98012    11986.521 
   90000    294.53127    214.64526   -3154.8422   -2716.7492    1063.6936    11987.179 
   90050     302.0199    214.87427   -3162.4758    -2713.244    813.16584    11988.117 
   90100     314.5834    215.27692   -3175.8974   -2707.9784    428.42448     11989.22 
   90150    306.96613    214.93644   -3164.5481   -2707.9592    684.02586    11990.325 
   90200    309.38657    215.07221   -3169.0736   -2708.8845    605.77462    11991.506 
   90250    300.68808    214.86498    -3162.166   -2714.9152    796.92178    11992.771 
   90300    302.44689    214.90547   -3163.5157   -2713.6489    787.52449    11994.196 
   90350    310.27619    215.10412   -3170.1373    -2708.625     668.0569    11995.773 
   90400    288.10222    214.45911   -3148.6371   -2720.1069    1221.4918      11997.5 
   90450    317.83018    215.30544   -3176.8479   -2704.0996     360.6145    11999.542 
   90500    309.52751    215.02669   -3167.5562   -2707.1575    499.09622    12001.585 
   90550     309.9006    214.95277   -3165.0923   -2704.1386    512.91994    12003.597 
   90600    318.77237    215.24659   -3174.8863   -2700.7365    351.75479    12005.605 
   90650      309.715     214.9493   -3164.9768   -2704.2992    676.32631    12007.561 
   90700     298.8649    214.71932   -3157.3107   -2712.7718    854.59924    12009.618 
   90750    307.24099    214.92568   -3164.1893   -2707.1917    540.69653    12011.859 
   90800     306.8162    214.93405   -3164.4684   -2708.1026    613.80023    12014.153 
   90850    309.25763    214.99573   -3166.5245   -2706.5272    559.90579    12016.531 
   90900    306.01329    214.74601   -3158.2003   -2703.0288    625.03926    12018.977 
   90950    302.50224    214.68618   -3156.2061   -2706.2569    582.24275    12021.487 
   91000    311.82876    214.97347   -3165.7822   -2701.9606    173.17751    12024.052 
   91050    316.14389    214.98757   -3166.2522   -2696.0121     110.6841    12026.482 
   91100    308.46414    214.81015   -3160.3382   -2701.5212     346.4794    12028.736 
   91150     315.1154    215.14393   -3171.4643    -2702.754     80.96834    12030.886 
   91200    303.71186    214.74936   -3158.3119   -2706.5635    414.65495    12032.846 
   91250     299.3735    214.72781   -3157.5936   -2712.2982    426.43609    12034.762 
   91300    307.02145    214.85682   -3161.8942    -2705.223    177.80459    12036.651 
   91350    304.90587     214.8926   -3163.0865   -2709.5621    185.63984    12038.391 
   91400    300.18288    214.75553   -3158.5178   -2712.0185    288.93029    12039.985 
   91450    302.11988    214.69007   -3156.3356   -2706.9552    260.23729    12041.481 
   91500    295.95548    214.52446   -3150.8153    -2710.604    333.76704    12042.878 
   91550    319.81802    215.26841   -3175.6137   -2699.9086   -314.24284    12044.142 
   91600     311.7169     215.0379   -3167.9299   -2704.2746   -62.518226    12045.041 
   91650    299.42617    214.75525   -3158.5082   -2713.1345    194.12856    12045.643 
   91700    294.76295    214.64629   -3154.8762   -2716.4387    241.65015    12046.087 
   91750    289.60187    214.53364   -3151.1214   -2720.3606    480.97839    12046.421 
   91800    286.97265     214.3587   -3145.2901     -2718.44     659.3334    12046.766 
   91850    297.00487    214.72527   -3157.5089   -2715.7367    259.91175    12047.192 
   91900    300.03813    214.85802   -3161.9339   -2715.6499    52.946793    12047.512 
   91950    292.49067    214.61746   -3153.9155   -2718.8578    247.44882    12047.636 
   92000    297.17074    214.81151   -3160.3837   -2718.3647    116.58517    12047.611 
   92050    299.55837    219.97043    -3165.681   -2720.1106   -41.426338    12047.407 
   92100    303.38309    220.07152   -3169.0508   -2717.7915   -185.57731    12046.947 
   92150    300.53049    219.93193   -3164.3977   -2717.3814   -61.660296    12046.156 
   92200    295.72997    219.87925   -3162.6418   -2722.7659     53.26682    12045.092 
   92250    301.01333    220.11769   -3170.5898   -2722.8553   -55.517303    12043.798 
   92300    290.16522    219.74594   -3158.1979   -2726.5992    323.41296    12042.266 
   92350    286.87115    219.61202   -3153.7339   -2727.0348    401.49063    12040.651 
   92400    301.87732    220.07622   -3169.2073   -2720.1877   -84.464013    12038.976 
   92450    301.00918    220.16106   -3172.0353    -2724.307   -85.218487    12037.048 
   92500    291.30073    219.86635   -3162.2118    -2728.924    291.54875    12034.845 
   92550    292.70298    219.84278    -3161.426   -2726.0525    373.50791    12032.531 
   92600    298.85867    220.02241   -3167.4136    -2722.884    196.36677    12030.169 
   92650    296.51772    220.01938   -3167.3127   -2726.2651    164.73953    12027.676 
   92700    297.36907    220.18763   -3172.9211   -2730.6071     38.91811    12025.028 
   92750    293.63775    220.09937   -3169.9789    -2733.215    153.67895    12022.179 
   92800    296.83616    220.23407   -3174.4688   -2732.9476     119.2874    12019.138 
   92850    292.98976    220.03867   -3167.9557   -2732.1556    276.40734    12015.936 
   92900    293.19385    220.05442   -3168.4807   -2732.3771    264.90605    12012.625 
   92950    293.00099    220.10414   -3170.1381   -2734.3213    273.40317    12009.202 
   93000    286.24675    219.94963   -3164.9876   -2739.2172    552.16202    12005.701 
   93050    286.86612    214.91869   -3163.9563   -2737.2647    656.51351    12002.243 
   93100    282.51814    214.79028    -3159.676   -2739.4516    811.16561    11998.883 
   93150    291.80396    215.15136   -3171.7121   -2737.6758    536.57232    11995.657 
   93200    276.44877      214.778   -3159.2667   -2748.0701    931.12565    11992.507 
   93250    305.38299    215.63041   -3187.6802   -2733.4462    104.73075    11989.522 
   93300    309.42766    215.74789   -3191.5964   -2731.3462   -55.007221    11986.381 
   93350    300.33655    215.56387   -3185.4623   -2738.7345    213.01757     11982.96 
   93400     300.5236    215.55522   -3185.1739   -2738.1678    177.08992    11979.379 
   93450    299.50815    215.52082   -3184.0274   -2738.5317    204.86252    11975.626 
   93500    279.19408    214.86286   -3162.0953   -2746.8152    871.67792    11971.759 
   93550    297.90022    215.44784   -3181.5947   -2738.4907    348.97045    11968.029 
   93600    296.18038    215.46694   -3182.2312   -2741.6853    376.80855    11964.258 
   93650    279.39347    215.02569   -3167.5228   -2751.9462     882.2574    11960.451 
   93700    298.69875    215.56029    -3185.343   -2741.0512    379.42367    11956.805 
   93750    300.32262    215.64429   -3188.1431   -2741.4359    347.68188    11953.137 
   93800    297.50409    215.64907   -3188.3022   -2745.7874    451.18049     11949.39 
   93850    301.36472    215.90776   -3196.9254   -2748.6683     324.6166    11945.617 
   93900     296.7989    215.71136   -3190.3786   -2748.9127     591.4114    11941.772 
   93950    281.19238    215.21478   -3173.8258   -2755.5735    1209.1835        11938 
   94000    292.22717    215.50649   -3183.5496   -2748.8838    1026.3977    11934.567 
   94050    290.38802    210.54406   -3184.8018   -2752.8717    968.32117    11931.432 
   94100    292.30973    210.62783   -3187.5944   -2752.8058    856.21562     11928.52 
   94150    294.92963    210.69338   -3189.7794   -2751.0939    793.73702     11925.79 
   94200    310.31095    211.15173   -3205.0577   -2743.4937    430.93638    11923.195 
   94250    303.81853    210.95367   -3198.4557   -2746.5487    716.55343     11920.58 
   94300    293.46909    210.68223   -3189.4076   -2752.8946    1066.9503    11918.063 
   94350    299.60568     210.8402   -3194.6735   -2749.0327    875.21188    11915.833 
   94400    310.92337    211.19836   -3206.6118   -2744.1369    421.33649    11913.771 
   94450    312.83094    211.22482    -3207.494   -2742.1816    346.30548    11911.648 
   94500    296.54034    210.69803   -3189.9344   -2748.8532    912.07772    11909.466 
   94550    294.00609    210.73701   -3191.2336   -2753.9218    968.64715    11907.459 
   94600    302.33561    211.00309    -3200.103   -2750.4016    670.41361    11905.675 
   94650    298.81841    210.88308   -3196.1027   -2751.6329    759.93385    11904.003 
   94700    304.98039    211.03313   -3201.1043   -2747.4691    680.09426    11902.435 
   94750    295.12863    210.77676   -3192.5588   -2753.5773    859.05332    11900.971 
   94800    300.09329    210.95489   -3198.4964   -2752.1304    631.21075    11899.658 
   94850    295.65564    210.89469   -3196.4896   -2756.7242    787.97638    11898.426 
   94900     292.7284    210.82735   -3194.2452   -2758.8339    939.88873    11897.343 
   94950    286.24099    210.67605   -3189.2018     -2763.44    1093.6898    11896.489 
   95000    292.98015    210.94292   -3198.0972   -2762.3114    836.59845    11895.922 
   95050    296.01623    211.00815   -3200.2717     -2759.97    668.65788    11895.539 
   95100     286.4655    210.66346   -3188.7821   -2762.6864    976.92218    11895.258 
   95150     278.3927     210.5097   -3183.6567   -2769.5687    1157.3054    11895.228 
   95200    293.92687    211.01539   -3200.5129    -2763.319    655.58306     11895.53 
   95250    297.43942    211.10213   -3203.4042   -2760.9856    600.62598    11895.953 
   95300    296.86576    211.23145   -3207.7148   -2766.1495    584.88277    11896.409 
   95350     297.8117    211.22016   -3207.3386   -2764.3663    620.94731    11896.904 
   95400    293.13088    211.00087   -3200.0291   -2764.0191    810.56701    11897.487 
   95450    302.02682    211.43032    -3214.344    -2765.102    495.43991    11898.191 
   95500    287.07839    211.06754   -3202.2514   -2775.2441    806.43437    11898.925 
   95550    285.85189     210.9455   -3198.1832   -2773.0002    869.97235    11899.814 
   95600    285.17648    211.00916   -3200.3053   -2776.1269    830.19223    11900.913 
   95650    298.96203    211.29392   -3209.7973    -2765.114    399.93201    11902.174 
   95700    282.96114    210.88395   -3196.1318   -2775.2486    744.75751     11903.44 
   95750    290.48914     211.1358   -3204.5268   -2772.4462    500.47982    11904.819 
   95800    279.18933    210.81968   -3193.9895   -2778.7165    768.65071     11906.26 
   95850    287.73189    211.08049    -3202.683   -2774.7036    470.41036    11907.816 
   95900    288.67129     211.1293     -3204.31   -2774.9334    345.44211    11909.398 
   95950    286.64571    211.14325   -3204.7749   -2778.4111    340.77533    11910.913 
   96000    290.53391    211.25476   -3208.4919   -2776.3448    185.03986    11912.358 
   96050    292.40588    211.36934   -3212.3114   -2777.3799    117.84009    11913.662 
   96100    276.68926     210.9381   -3197.9367   -2786.3824     548.2287    11914.807 
   96150     271.4872    210.77516   -3192.5054   -2788.6888    759.60871    11915.979 
   96200    283.94483    211.12348   -3204.1161   -2781.7697    408.27587    11917.286 
   96250    297.60116    211.53975   -3217.9917   -2775.3325   -93.604103     11918.56 
   96300    286.27654    211.11487   -3203.8289   -2778.0142     160.6554    11919.591 
   96350    282.13337    210.98499   -3199.4997   -2779.8477      209.337     11920.45 
   96400    277.72222    210.87608   -3195.8692   -2782.7784    325.25018     11921.17 
   96450    273.88351    210.73459    -3191.153   -2783.7721    421.08549    11921.829 
   96500    287.17222    211.20956   -3206.9852   -2779.8383    55.012212    11922.434 
   96550    277.08872    210.82201    -3194.067   -2781.9186    351.79738    11922.876 
   96600    290.46039    211.27362   -3209.1206   -2777.0828    4.4131728    11923.215 
   96650    292.48966    211.42975   -3214.3251   -2779.2689   -88.514359    11923.304 
   96700    290.45545    211.22773    -3207.591   -2775.5606   -7.8192333    11923.101 
   96750    276.64637    210.74845   -3191.6148   -2780.1243    373.14335    11922.662 
   96800      276.619    210.77307   -3192.4357   -2780.9859    465.05916    11922.143 
   96850    286.85425    211.02781   -3200.9271   -2774.2532    294.09916    11921.609 
   96900    282.20704    210.89423   -3196.4743   -2776.7127    372.34018        11921 
   96950    286.92988    211.01511   -3200.5038   -2773.7174    311.42296    11920.309 
   97000    282.75921    210.82976   -3194.3252   -2773.7423    523.90773    11919.546 
   97050    305.53239    216.38641   -3212.8802   -2758.4239    51.874018    11918.766 
   97100    273.01835    215.42598   -3180.8661    -2774.772    1051.5439    11917.863 
   97150    286.61146    215.77012   -3192.3374   -2766.0246    746.88442     11917.19 
   97200    293.73793    215.94024    -3198.008   -2761.0951    569.93777    11916.685 
   97250    285.42687    215.57819   -3185.9397   -2761.3888    888.71684    11916.254 
   97300    298.53296    215.94112   -3198.0374   -2753.9922    554.07002    11915.992 
   97350    301.49423    216.05606   -3201.8688    -2753.419    458.73242    11915.786 
   97400     290.4633    215.75146   -3191.7152   -2759.6731    754.67499    11915.593 
   97450    283.04271    215.40834   -3180.2781   -2759.2735     1067.847     11915.56 
   97500    289.67129    215.59482   -3186.4941     -2755.63    979.95014    11915.836 
   97550    287.15331      215.461   -3182.0333   -2754.9145    1126.6374    11916.399 
   97600    294.00826     215.5627   -3185.4232   -2748.1082    993.15149    11917.305 
   97650    309.27555    216.12811   -3204.2702   -2744.2462     521.6383    11918.463 
   97700    296.30926      215.611   -3187.0333   -2746.2957    892.32451    11919.697 
   97750    303.93054    215.82984    -3194.328   -2742.2544    689.28522    11921.116 
   97800    304.74607     215.7709   -3192.3634   -2739.0767    752.86167    11922.675 
   97850     303.0731    215.70293   -3190.0976   -2739.2994    811.55454    11924.376 
   97900     292.7885    215.39899   -3179.9663   -2744.4656    1037.2512    11926.263 
   97950    298.20311    215.56116    -3185.372   -2741.8174    923.60333     11928.43 
   98000    293.40739    215.29132   -3176.3772   -2739.9559    1113.0049    11930.876 
   98050     308.8044     210.6587   -3188.6234   -2729.3003    705.63126    11933.627 
   98100    292.87154    210.15837   -3171.9457   -2736.3214    1141.9151     11936.54 
   98150    293.70665    210.18515   -3172.8384    -2735.972    1114.4148    11939.761 
   98200    316.99276    210.83544   -3194.5146   -2723.0119     388.3042    11943.285 
   98250    322.67563    211.02722   -3200.9073   -2720.9518    199.17088     11946.79 
   98300    314.92106    210.72332   -3190.7775   -2722.3563    436.88073    11950.153 
   98350    312.36657    210.57447   -3185.8158   -2721.1942    553.85206    11953.464 
   98400    290.80348     209.9646   -3165.4867   -2732.9385    1165.3017    11956.834 
   98450    289.70207    209.96747   -3165.5823   -2734.6725    1128.0018    11960.532 
   98500    296.57798    210.25353   -3175.1178   -2733.9806    795.13655    11964.576 
   98550    310.91942    210.71706   -3190.5687   -2728.0996    333.17973     11968.79 
   98600     307.2839    210.52809   -3184.2698   -2727.2083    411.29936    11972.952 
   98650    293.11152    210.02384   -3167.4613   -2731.4802    768.90787    11977.089 
   98700    297.31481    210.09774   -3169.9247   -2727.6914    617.34111    11981.371 
   98750     298.3265    210.13794   -3171.2647   -2727.5266    514.57516    11985.747 
   98800    311.90778     210.5909   -3186.3632   -2722.4241    107.04954    11990.125 
   98850    298.85987    210.18403    -3172.801   -2728.2696    468.13923    11994.352 
   98900    304.36938    210.37469   -3179.1565   -2726.4301    293.66247    11998.543 
   98950    309.99644    210.43473   -3181.1578   -2720.0616    106.73173    12002.655 
   99000    303.65511    210.21639   -3173.8798   -2722.2158    251.26532    12006.581 
   99050    306.39432    210.27918   -3175.9728   -2720.2345    119.24031    12010.367 
   99100     295.0482    209.95362   -3165.1205   -2726.2587    407.11041    12013.989 
   99150    305.20537    210.36332   -3178.7775   -2724.8076    29.450117    12017.536 
   99200    306.81753    210.34778   -3178.2595   -2721.8917   -144.39231    12020.865 
   99250    308.54514    210.40829   -3180.2762   -2721.3387   -263.15942    12023.849 
   99300    296.62712    210.05094   -3168.3646   -2727.1542    8.7661442    12026.459 
   99350    299.47299    210.19497   -3173.1655   -2727.7221   -83.164554    12028.782 
   99400    286.58773    209.71297    -3157.099   -2730.8215    274.36948    12030.854 
   99450    311.02337    210.50223   -3183.4078   -2720.7841   -324.94898    12032.757 
   99500    305.04611    210.30609   -3176.8697   -2723.1367   -149.77571    12034.269 
   99550    296.56178    210.09213   -3169.7377   -2728.6245   -10.032192    12035.431 
   99600    286.93426    209.68044   -3156.0146   -2729.2216    234.59822    12036.351 
   99650    293.85846    209.92971   -3164.3238   -2727.2316    85.430945    12037.114 
   99700    299.66804    210.07996    -3169.332   -2723.5985   -36.834408    12037.659 
   99750    287.70306    209.74583   -3158.1943   -2730.2577    225.82811    12037.943 
   99800    306.07592    210.33049    -3177.683   -2722.4183   -271.71119     12038.04 
   99850    298.68405    210.10188   -3170.0628   -2725.7929   -18.089386    12037.791 
   99900    304.81372    210.28044   -3176.0146   -2722.6273   -144.36387    12037.223 
   99950    304.01473    210.28623   -3176.2077   -2724.0088   -171.67918    12036.313 
  100000    293.44135    209.92782   -3164.2606   -2727.7888    163.14504    12035.059 
Loop time of 26.8327 on 1 procs for 100000 steps with 500 atoms

Performance: 321.996 ns/day, 0.075 hours/ns, 3726.801 timesteps/s
99.8% CPU use with 1 MPI tasks x 1 OpenMP threads

MPI task timing breakdown:
Section |  min time  |  avg time  |  max time  |%varavg| %total
---------------------------------------------------------------
Pair    | 22.375     | 22.375     | 22.375     |   0.0 | 83.39
Bond    | 0.0067117  | 0.0067117  | 0.0067117  |   0.0 |  0.03
Neigh   | 0.50281    | 0.50281    | 0.50281    |   0.0 |  1.87
Comm    | 0.78943    | 0.78943    | 0.78943    |   0.0 |  2.94
Output  | 0.018607   | 0.018607   | 0.018607   |   0.0 |  0.07
Modify  | 2.7549     | 2.7549     | 2.7549     |   0.0 | 10.27
Other   |            | 0.3852     |            |       |  1.44

Nlocal:    500 ave 500 max 500 min
Histogram: 1 0 0 0 0 0 0 0 0 0
Nghost:    1601 ave 1601 max 1601 min
Histogram: 1 0 0 0 0 0 0 0 0 0
Neighs:    14537 ave 14537 max 14537 min
Histogram: 1 0 0 0 0 0 0 0 0 0

Total # of neighbors = 14537
Ave neighs/atom = 29.074
Ave special neighs/atom = 0
Neighbor list builds = 604
Dangerous builds = 0

write_data      ${walker}/final_restart_file
write_data      7/final_restart_file

quit
