LAMMPS (19 May 2017)
Processor partition = 7
  using 1 OpenMP thread(s) per MPI task
# gREM variables
variable        lambda world 1000 1005 1010 1015 1020 1025 1030 1035 1040 1045 1050 1055 1060 1065 1070 1075
variable        walker world 0 1 2 3 4 5 6 7 8 9 10 11 12 13 14 15
variable        replica world 1 3 7 2 4 6 5 8 11 14 0 10 12 13 9 15

variable        T0 equal 300.0
variable        press equal 0.0

units           real
atom_style      full
pair_style      lj/cut 5.0

# LJ particles
read_data       ${walker}/restart_file
read_data       7/restart_file
  orthogonal box = (1.02125 1.02125 1.02125) to (23.9787 23.9787 23.9787)
  1 by 1 by 1 MPI processor grid
  reading atoms ...
  500 atoms
  reading velocities ...
  500 velocities
  0 = max # of 1-2 neighbors
  0 = max # of 1-3 neighbors
  0 = max # of 1-4 neighbors
  1 = max # of special neighbors

#dump            dump all xyz 1000 ${walker}/dump.xyz

fix             fxnpt all npt temp ${T0} ${T0} 1000.0 iso ${press} ${press} 10000.0
fix             fxnpt all npt temp 300 ${T0} 1000.0 iso ${press} ${press} 10000.0
fix             fxnpt all npt temp 300 300 1000.0 iso ${press} ${press} 10000.0
fix             fxnpt all npt temp 300 300 1000.0 iso 0 ${press} 10000.0
fix             fxnpt all npt temp 300 300 1000.0 iso 0 0 10000.0
fix             fxgREM all grem ${lambda} -.03 -30000 fxnpt
fix             fxgREM all grem 1035 -.03 -30000 fxnpt
thermo_modify   press fxgREM_press

thermo          50
thermo_style    custom step temp f_fxgREM pe etotal press vol
WARNING: New thermo_style command, previous thermo_modify settings will be lost (../output.cpp:705)
timestep        1.0

temper/grem     100000 1000 ${lambda} fxgREM fxnpt 10294 98392 ${walker}
temper/grem     100000 1000 1035 fxgREM fxnpt 10294 98392 ${walker}
temper/grem     100000 1000 1035 fxgREM fxnpt 10294 98392 7
Neighbor list info ...
  update every 1 steps, delay 10 steps, check yes
  max neighbors/atom: 2000, page size: 100000
  master list distance cutoff = 7
  ghost atom cutoff = 7
  binsize = 3.5, bins = 7 7 7
  1 neighbor lists, perpetual/occasional/extra = 1 0 0
  (1) pair lj/cut, perpetual
      attributes: half, newton on
      pair build: half/bin/newton
      stencil: half/bin/3d/newton
      bin: standard
Per MPI rank memory allocation (min/avg/max) = 5.723 | 5.723 | 5.723 Mbytes
Step Temp f_fxgREM PotEng TotEng Press Volume 
       0    306.45471    228.88958   -3129.6528   -2673.8247    559.44237    12099.669 
      50    321.29329     229.4318   -3147.7268   -2669.8274    89.609401    12099.683 
     100    317.58875    229.27811   -3142.6037   -2670.2145    215.09634    12099.559 
     150    296.89547    228.58041   -3119.3469   -2677.7374    904.01171    12099.352 
     200    291.55177    228.28684   -3109.5615   -2675.9003    1098.6225    12099.396 
     250    300.40132    228.62454   -3120.8179   -2673.9937    850.82958    12099.803 
     300    308.90657    228.87653   -3129.2177   -2669.7426    685.53329    12100.449 
     350    295.97014    228.52221   -3117.4069   -2677.1737    911.19953    12101.282 
     400     305.5145    228.91273   -3130.4244   -2675.9947    418.11048    12102.348 
     450    299.24886    228.61624   -3120.5414   -2675.4314    651.06759    12103.466 
     500    314.02969     229.2065   -3140.2166   -2673.1212    208.12643    12104.672 
     550     310.6854     229.1463   -3138.2101   -2676.0891     199.2727    12105.803 
     600    305.90976    229.07088   -3135.6959   -2680.6783    269.27795    12106.823 
     650    313.38589     229.3086   -3143.6201   -2677.4824     12.34738    12107.756 
     700    299.63416    228.82087   -3127.3623   -2681.6792    389.99022     12108.52 
     750    312.35469    229.27953    -3142.651   -2678.0471    49.063574    12109.237 
     800    296.52466    228.68516   -3122.8388   -2681.7809    554.32512    12109.827 
     850    298.54136    228.78935   -3126.3115   -2682.2539    440.82672    12110.452 
     900    292.98731    228.56569   -3118.8564   -2683.0599    638.69104    12111.124 
     950    290.10863    228.43229   -3114.4097   -2682.8951    702.25818     12111.92 
    1000    306.56197    229.09927   -3136.6422   -2680.6545    106.39255    12112.836 
    1050    288.09501    228.40973   -3113.6578   -2685.1383    790.23002    12113.666 
    1100    286.33541    228.45289   -3115.0963   -2689.1941    844.24185    12114.678 
    1150    303.32028    229.07456   -3135.8186   -2684.6526    184.87274    12115.899 
    1200    294.56217    228.68731   -3122.9103   -2684.7714    389.11355    12117.062 
    1250    299.63553    228.87799   -3129.2664   -2683.5813    279.51598    12118.206 
    1300    296.18669    228.86305   -3128.7683    -2688.213    388.45941    12119.297 
    1350    291.04695    228.76319   -3125.4397   -2692.5294    494.28229    12120.391 
    1400    295.57388    228.78394   -3126.1313   -2686.4876    371.74406    12121.539 
    1450    301.38646    228.95658   -3131.8859   -2683.5964    191.88252    12122.656 
    1500    289.84673    228.65433    -3121.811   -2690.6859    402.30507    12123.698 
    1550    288.77049    228.65716   -3121.9052    -2692.381    355.33034    12124.733 
    1600    302.10892    229.12801   -3137.6003   -2688.2362   -73.640056    12125.721 
    1650    297.48218    228.96573   -3132.1909   -2689.7087   -0.1868591    12126.502 
    1700    293.88548    228.97066   -3132.3554    -2695.223     45.67611    12127.056 
    1750    292.27802    228.87489    -3129.163   -2694.4216     131.2187     12127.42 
    1800    295.88307    229.06846   -3135.6152   -2695.5115  -0.39868497    12127.632 
    1850    283.87969    228.71922   -3123.9739   -2701.7244    341.75891    12127.681 
    1900    299.71789    229.26381    -3142.127   -2696.3193   -157.27206    12127.661 
    1950    302.33728    229.31874   -3143.9579   -2694.2541   -318.72816    12127.366 
    2000    293.30406    229.17158   -3139.0526    -2702.785   -177.85597    12126.696 
    2050    297.23821    224.43252   -3147.7507   -2705.6314    -326.7436    12125.696 
    2100    281.35468    223.96196   -3132.0652   -2713.5715     106.9997    12124.342 
    2150    288.85439    224.17899   -3139.2998   -2709.6507   -61.827878    12122.777 
    2200    280.14709    223.88731   -3129.5771   -2712.8795    245.58143    12120.989 
    2250    274.55313    223.90884   -3130.2948   -2721.9178     275.8289    12119.105 
    2300    286.98273    224.38425   -3146.1418   -2719.2768   -150.67963    12117.127 
    2350    291.01213    224.40647   -3146.8825    -2714.024   -207.14556     12114.86 
    2400    294.43343    224.58572   -3152.8572   -2714.9098   -365.77097    12112.251 
    2450    286.66938    224.38728   -3146.2428   -2719.8438   -228.17574    12109.249 
    2500    288.23477    224.49904    -3149.968   -2721.2407   -300.36239     12105.88 
    2550    288.87938    224.59024   -3153.0079   -2723.3218   -340.74829    12102.137 
    2600     292.9413    224.70467   -3156.8223   -2721.0943   -337.12295    12097.995 
    2650    291.83496    224.67719   -3155.9065   -2721.8241   -245.20325    12093.449 
    2700    289.18807    224.61674   -3153.8913    -2723.746   -176.98773    12088.546 
    2750    276.09808    224.26812   -3142.2707   -2731.5957    205.92903    12083.343 
    2800    282.41462     224.4921   -3149.7367   -2729.6664    9.1526098    12078.002 
    2850     284.7684    224.55985   -3151.9949   -2728.4235    4.2443559     12072.45 
    2900    280.73395    224.44184   -3148.0613   -2730.4908    177.92409    12066.686 
    2950    286.75963    224.65424   -3155.1414   -2728.6082    -26.61937    12060.785 
    3000    288.74342    224.83675   -3161.2251   -2731.7412   -67.648817    12054.653 
    3050    299.60975    225.12678   -3170.8928    -2725.246   -258.09916    12048.251 
    3100    295.00363    224.93841   -3164.6138   -2725.8183   -18.471101    12041.515 
    3150    295.37002    225.04978    -3168.326   -2728.9854     36.33303    12034.529 
    3200    293.88408    225.10258    -3170.086   -2732.9557    113.73318    12027.332 
    3250     281.7872    224.72702   -3157.5673   -2738.4302    521.01927    12019.999 
    3300    283.48586    224.80223   -3160.0745   -2738.4107    610.93285    12012.697 
    3350    284.87344     224.8369   -3161.2299   -2737.5023    654.39972     12005.49 
    3400    286.28234    224.88152   -3162.7175   -2736.8942    629.42449    11998.422 
    3450    288.66983    224.91818   -3163.9394   -2734.5649    626.91807    11991.469 
    3500    281.36942    224.67142   -3155.7139   -2737.1982    893.76121     11984.65 
    3550     303.4235    225.40156    -3180.052   -2728.7326    223.72986    11978.031 
    3600    304.06864    225.45596   -3181.8652   -2729.5862    215.26488    11971.347 
    3650    294.03076     225.1524   -3171.7466   -2734.3982    686.55796    11964.562 
    3700     279.8325    224.66741   -3155.5802   -2739.3505    1239.0685    11957.939 
    3750    298.72507    225.29927   -3176.6424   -2732.3115    779.98664    11951.695 
    3800    294.67736    225.24941   -3174.9804   -2736.6702    1013.0032    11945.673 
    3850    287.49443    225.03767   -3167.9224   -2740.2962    1390.0749    11939.964 
    3900    291.99563    225.24597   -3174.8656   -2740.5442    1291.8748    11934.747 
    3950    296.98805    225.33514   -3177.8381   -2736.0909    1220.3592    11929.995 
    4000    294.17887    225.25589   -3175.1964   -2737.6276    1253.6553    11925.673 
    4050    308.80018    225.65302   -3188.4339    -2729.117    848.08609    11921.766 
    4100    305.20632    225.45509   -3181.8364   -2727.8651     1074.048    11918.102 
    4150    287.23721    225.01178   -3167.0595   -2739.8159    1690.9408    11914.785 
    4200    285.97888    224.93205   -3164.4018   -2739.0299    1798.4857     11912.11 
    4250    298.16687    225.23568   -3174.5228   -2731.0222    1491.2965    11910.141 
    4300    309.61724    225.62255   -3187.4184   -2726.8862    1136.6069    11908.738 
    4350     304.9385    225.55719   -3185.2395   -2731.6666     1252.211    11907.715 
    4400    299.02085    225.38321   -3179.4403   -2734.6694    1530.3316    11907.126 
    4450     310.2898    225.60875   -3186.9584   -2725.4258     1211.403    11907.094 
    4500    303.55046    225.30796   -3176.9319   -2725.4236    1372.4641    11907.492 
    4550    297.29308    225.11774   -3170.5915   -2728.3906     1496.214    11908.384 
    4600    315.98021     225.6854   -3189.5133   -2719.5167    981.98066    11909.782 
    4650    296.69682    225.03111   -3167.7038   -2726.3897    1568.7773    11911.553 
    4700    316.25844    225.65307   -3188.4357   -2718.0252    1081.6761    11913.848 
    4750    318.87386    225.63069   -3187.6897    -2713.389    1100.1411    11916.503 
    4800    301.10815    225.05396   -3168.4654   -2720.5898    1598.8952    11919.533 
    4850    297.87376    224.89407   -3163.1357    -2720.071     1667.412    11923.139 
    4900    308.80392    225.23088   -3174.3626   -2715.0402     1343.829    11927.363 
    4950    301.34994    224.96658   -3165.5526   -2717.3174    1561.3105    11932.104 
    5000     286.5713    224.42902   -3147.6339   -2721.3808    1997.1051    11937.461 
    5050    299.25564    224.87415   -3162.4718   -2717.3517    1568.2594    11943.609 
    5100    305.01229    224.89113   -3163.0378   -2709.3551     1400.862    11950.394 
    5150     308.0421    225.00955   -3166.9851   -2708.7958    1199.7234    11957.693 
    5200    315.45904     225.1914   -3173.0465   -2703.8251    994.89868    11965.387 
    5250    306.23142    224.83963   -3161.3211   -2705.8251    1230.0919    11973.424 
    5300    305.00762    224.76897   -3158.9657     -2705.29    1149.2786    11981.889 
    5350    314.98756     224.9745   -3165.8167   -2697.2966    854.52448    11990.715 
    5400    304.36325    224.60885   -3153.6284   -2700.9111    1135.1107     11999.83 
    5450    310.55425    224.67974   -3155.9914   -2694.0655    925.42311    12009.301 
    5500    303.05889    224.35928   -3145.3095   -2694.5323    1073.6875    12019.067 
    5550    298.83449    224.07929   -3135.9763   -2691.4826    1110.9178    12029.196 
    5600    325.67277    224.97178   -3165.7261   -2681.3125    208.40785    12039.636 
    5650    307.04521    224.35931   -3145.3104   -2688.6039    628.08699    12050.049 
    5700    309.45462    224.44614   -3148.2047   -2687.9144    481.80717    12060.525 
    5750    293.61103    223.91039   -3130.3462    -2693.622    832.85603    12071.069 
    5800    296.32201    223.97521    -3132.507   -2691.7505    672.32896    12081.813 
    5850    307.59528     224.3894   -3146.3135   -2688.7888    180.19373    12092.688 
    5900    310.44182    224.49434   -3149.8112   -2688.0525    8.5401794    12103.445 
    5950    299.98588    224.05541   -3135.1804   -2688.9742    230.67092    12114.002 
    6000      297.378     223.9155   -3130.5168   -2688.1896    204.32314    12124.442 
    6050    288.89493    218.68168   -3122.7228   -2693.0134    391.68218    12134.779 
    6100    306.75111    219.24427   -3141.4756   -2685.2066   -189.98414    12145.041 
    6150    308.10868    219.22809   -3140.9364   -2682.6481   -445.36376    12154.993 
    6200    318.10734    219.49392   -3149.7972   -2676.6366   -871.00938     12164.44 
    6250    298.07456    218.83446   -3127.8152   -2684.4519   -409.85431    12173.227 
    6300    315.69922    219.30507   -3143.5024   -2673.9237   -884.97277     12181.45 
    6350    299.29212    218.68903   -3122.9678   -2677.7935   -428.08915    12189.002 
    6400    299.09538    218.67773   -3122.5909   -2677.7092   -412.01065    12196.041 
    6450    302.78021    218.79235   -3126.4117   -2676.0491   -578.54145    12202.594 
    6500    304.33966    218.79866    -3126.622   -2673.9398   -637.65484     12208.59 
    6550    303.13981    218.74744   -3124.9147   -2674.0172   -603.10249    12213.999 
    6600    309.55576    218.88938   -3129.6459   -2669.2051   -826.59167    12218.812 
    6650    302.78159    218.63107   -3121.0356   -2670.6709   -618.80975    12222.928 
    6700    289.45263    218.22125    -3107.375   -2676.8361   -222.76968    12226.461 
    6750    293.17849    218.45874   -3115.2913   -2679.2105   -471.74501    12229.581 
    6800    287.90645    218.17434   -3105.8113   -2677.5723   -339.20595    12232.221 
    6850    307.64042      218.803   -3126.7666   -2669.1748   -873.56566    12234.385 
    6900    315.69753    219.07225   -3135.7416   -2666.1654   -1149.4276    12235.835 
    6950    310.15217    218.84585   -3128.1948    -2666.867   -1032.2461    12236.418 
    7000    308.03303    218.81224   -3127.0747   -2668.8989   -1022.0487    12236.174 
    7050    303.67572     218.6323   -3121.0767   -2669.3821   -795.54232    12235.125 
    7100    292.43071    218.26108   -3108.7028   -2673.7343   -371.26795      12233.4 
    7150    296.78418    218.41907    -3113.969   -2672.5251   -379.02125    12231.201 
    7200    303.01911    218.65703   -3121.9009    -2671.183   -576.94449    12228.553 
    7250    310.42345     218.8823     -3129.41   -2667.6787   -829.75725    12225.347 
    7300    297.22095    218.46591   -3115.5303   -2673.4367   -396.01649    12221.473 
    7350    295.97801    218.35086   -3111.6952   -2671.4504   -202.71098    12217.127 
    7400    313.29106    218.86956   -3128.9853   -2662.9886   -489.09715    12212.407 
    7450    314.13952    218.87771   -3129.2569   -2661.9981   -433.68453    12207.183 
    7500    311.45394    218.80819   -3126.9398   -2663.6757   -351.10183     12201.47 
    7550    309.95899    218.73515   -3124.5049   -2663.4644   -217.43911    12195.322 
    7600    298.81907    218.36829   -3112.2765   -2667.8058    171.24843    12188.836 
    7650    306.85193    218.57676   -3119.2253   -2662.8064    40.778846    12182.169 
    7700    307.50302    218.50971   -3116.9904    -2659.603     97.78288    12175.295 
    7750    321.39645     218.9775   -3132.5834   -2654.5305    -328.3238    12168.192 
    7800    308.09898    218.55517   -3118.5056   -2660.2317    121.94605    12160.719 
    7850    304.04149    218.51228   -3117.0761   -2664.8374    401.79664    12153.059 
    7900    324.06304    219.16685    -3138.895   -2656.8758   -48.980744    12145.345 
    7950     310.7639    218.75154   -3125.0515   -2662.8137     358.7428    12137.416 
    8000    305.48103    218.59774   -3119.9245   -2665.5446    598.64652    12129.425 
    8050    308.89605    218.66083   -3122.0276   -2662.5682    611.70782     12121.52 
    8100    321.05738    219.14543   -3138.1811   -2660.6325    256.78179    12113.671 
    8150    316.88856     219.0111   -3133.7033   -2662.3556    472.46128    12105.758 
    8200    327.82949     219.3736   -3145.7866   -2658.1651    301.54847    12097.823 
    8250    316.96689    219.01472   -3133.8241   -2662.3598    657.01628    12089.836 
    8300    309.88675    218.77427   -3125.8089   -2664.8759     957.7453    12081.957 
    8350    328.17954     219.4362   -3147.8733   -2659.7311    456.19816    12074.316 
    8400    326.13067    219.40499    -3146.833   -2661.7384    593.36556    12066.717 
    8450    311.71754    218.92004   -3130.6681   -2667.0119    1139.3925    12059.205 
    8500    309.07094    218.93551   -3131.1836    -2671.464    1221.8949    12052.052 
    8550    311.81828    219.10482   -3136.8272   -2673.0212    1208.8017    12045.309 
    8600    307.72962    218.92501   -3130.8336   -2673.1091    1415.0886    12038.981 
    8650    322.34319    219.49814   -3149.9381    -2670.477    953.34784    12033.133 
    8700    299.75264    218.82025   -3127.3416   -2681.4823    1564.4827    12027.627 
    8750    312.94366    219.38723   -3146.2409   -2680.7609    1185.2923    12022.642 
    8800    321.81384    219.74583   -3158.1945   -2679.5208     770.0801     12018.06 
    8850    321.49762    219.77056   -3159.0186   -2680.8153    697.22458    12013.645 
    8900    306.95082    219.37647   -3145.8824   -2689.3163    1029.5154    12009.383 
    8950     306.0167    219.39431   -3146.4768   -2691.3002    1068.5497    12005.397 
    9000    304.15328     219.4138   -3147.1266   -2694.7216    1193.5271    12001.738 
    9050    298.90073    224.35596   -3145.1985   -2700.6064    1331.6363    11998.498 
    9100    307.67261    224.73212   -3157.7373   -2700.0976    953.95638    11995.709 
    9150    305.38947     224.6579   -3155.2634   -2701.0197    956.34484     11993.23 
    9200    306.42079    224.80565   -3160.1882   -2704.4105    966.84956    11991.031 
    9250    299.47249    224.62792   -3154.2641   -2708.8214    1191.7629    11989.131 
    9300    307.02449    224.94718   -3164.9059   -2708.2303    886.40708    11987.598 
    9350     302.3383    224.75189   -3158.3963    -2708.691    1023.2047     11986.35 
    9400     298.1102    224.59645    -3153.215   -2709.7987    1168.1064    11985.421 
    9450    305.22996    224.90899   -3163.6329   -2709.6265    827.78353    11984.831 
    9500    305.49231    225.04956   -3168.3188   -2713.9221    743.98132     11984.47 
    9550     303.1377    225.01808   -3167.2694   -2716.3751     806.3741    11984.295 
    9600    290.18048    224.66876   -3155.6254    -2724.004    1155.9728    11984.341 
    9650    290.18849    224.67031    -3155.677   -2724.0436    1143.8161    11984.761 
    9700    298.67558    224.94483   -3164.8277   -2720.5704    941.69461    11985.568 
    9750     302.1183    225.05808   -3168.6025   -2719.2245    825.77488    11986.652 
    9800    287.31522    224.63434   -3154.4781   -2727.1185    1232.8928    11987.968 
    9850    300.05426    225.01855   -3167.2849   -2720.9769     850.4687    11989.671 
    9900    305.79143    225.20419   -3173.4731   -2718.6315    530.70614      11991.6 
    9950     294.6788     224.9045   -3163.4832   -2725.1709    696.63191    11993.592 
   10000    300.96771    225.15809   -3171.9363   -2724.2696     466.1081    11995.712 
   10050    300.25082      220.047   -3168.2334   -2721.6331    475.19258    11997.869 
   10100    295.63143    219.96882   -3165.6273    -2725.898    491.43322    12000.042 
   10150    290.84878    219.88454   -3162.8181   -2730.2026    624.00539    12002.227 
   10200    283.31333    219.64125   -3154.7085   -2733.3013    888.66342    12004.517 
   10250    299.43238     220.1536   -3171.7867   -2726.4038    383.41968    12007.004 
   10300    300.61365    220.18488   -3172.8294   -2725.6894    316.20098    12009.476 
   10350    301.09161    220.12205   -3170.7351   -2722.8842     302.2887    12011.876 
   10400    298.64974    219.98734   -3166.2447   -2722.0259    316.32724    12014.197 
   10450    302.15478    220.18926   -3172.9754   -2723.5431    103.34091    12016.415 
   10500    284.61278    219.65858   -3155.2861   -2731.9461    499.52472    12018.492 
   10550    287.99601    219.84988   -3161.6625   -2733.2903    382.67365    12020.563 
   10600    291.43743    219.92673   -3164.2242   -2730.7331    318.93926    12022.618 
   10650    291.81125    219.90579   -3163.5265   -2729.4794    364.03738    12024.604 
   10700    286.72854    219.79614   -3159.8714   -2733.3844    512.97682    12026.547 
   10750    300.21058    220.22904   -3174.3013   -2727.7608    103.44078     12028.49 
   10800    289.73458    219.84177   -3161.3923   -2730.4341    336.19821    12030.289 
   10850    293.70723    219.89472   -3163.1572   -2726.2899    169.12873    12031.981 
   10900    292.15575    219.95912   -3165.3039   -2730.7444    84.878249    12033.542 
   10950    307.74879    220.49724   -3183.2412   -2725.4882   -321.56115    12034.882 
   11000    289.72827    219.88782   -3162.9274   -2731.9785    255.82856     12035.87 
   11050    288.39628    219.86725   -3162.2417   -2733.2741    295.37881     12036.73 
   11100    289.10138    219.81267   -3160.4223   -2730.4059    253.61123    12037.512 
   11150    300.70802    220.21977   -3173.9922   -2726.7118    -101.6339    12038.178 
   11200    301.00995     220.2172   -3173.9068   -2726.1773   -148.31128    12038.568 
   11250    294.17559    220.05586   -3168.5286   -2730.9647    27.463493    12038.649 
   11300    297.66587    220.24795   -3174.9317   -2732.1763   -126.62209    12038.479 
   11350    289.75419    219.90426   -3163.4752   -2732.4878    111.99343    12038.034 
   11400    300.36538    220.28771   -3176.2569   -2729.4861   -168.23554    12037.382 
   11450    296.31372    220.10004   -3170.0013    -2729.257    52.491064    12036.425 
   11500    282.26374    219.58494   -3152.8312   -2732.9852    562.40381    12035.285 
   11550    283.27621    219.59871   -3153.2902   -2731.9383    506.57721    12034.205 
   11600    290.61778    219.83196   -3161.0654   -2728.7935    212.75409    12033.165 
   11650    300.42145    220.17144   -3172.3812   -2725.5271   -111.31832    12032.001 
   11700     293.5547    219.89716   -3163.2385   -2726.5982    169.86631    12030.577 
   11750    277.57221    219.34789   -3144.9296    -2732.062    687.98855     12029.03 
   11800    292.74069    219.81268   -3160.4225   -2724.9929    294.98084    12027.558 
   11850    297.88959    219.96703   -3165.5676   -2722.4794    180.12529    12026.028 
   11900    294.61977    219.81683   -3160.5609   -2722.3363    367.19064    12024.381 
   11950    318.56714    220.53637   -3184.5457   -2710.7012   -226.21117     12022.63 
   12000    293.64023    219.74275   -3158.0915   -2721.3239    504.16824    12020.595 
   12050    304.75006    220.05007   -3168.3357   -2715.0431    327.05352    12018.512 
   12100    299.55531    219.80287   -3160.0956   -2714.5298    538.84365    12016.402 
   12150    300.32727    219.85297   -3161.7656   -2715.0515    441.38451    12014.325 
   12200    297.16871    219.78119   -3159.3729    -2717.357    545.11066    12012.256 
   12250     301.9557    219.88159   -3162.7198   -2713.5836    510.33605    12010.234 
   12300    309.81729    220.06913   -3168.9711   -2708.1413    359.48339    12008.233 
   12350    290.83756    219.47868   -3149.2894   -2716.6905    1073.3582    12006.224 
   12400    299.95138    219.77792   -3159.2639    -2713.109    858.15821      12004.5 
   12450    314.29276     220.1756   -3172.5201   -2705.0334    333.41754    12002.986 
   12500    313.03528    220.06368   -3168.7894   -2703.1731    438.75728    12001.423 
   12550    300.67855     219.6386   -3154.6198   -2707.3833    900.53593    11999.869 
   12600    309.94634    219.97579   -3165.8596   -2704.8379     637.5736    11998.524 
   12650     313.2245     220.0306   -3167.6868   -2701.7891    618.48764    11997.273 
   12700     303.9353    219.66482    -3155.494   -2703.4132    918.16175    11996.112 
   12750    300.32642    219.63571   -3154.5236   -2707.8108    957.14935    11995.183 
   12800    301.29994    219.59481   -3153.1603   -2704.9995     1102.622    11994.522 
   12850    302.66721    219.61011   -3153.6702   -2703.4756    1162.5418     11994.21 
   12900    323.98839    220.25754   -3175.2513   -2693.3431     584.7346    11994.225 
   12950    303.99444    219.52078   -3150.6926   -2698.5239    1150.0054    11994.378 
   13000    325.81015    220.25964   -3175.3213   -2690.7034    551.36559    11994.803 
   13050    313.58768    219.89156    -3163.052   -2696.6141    965.83298    11995.331 
   13100    300.97099    219.55418   -3151.8059   -2704.1344    1353.0653    11996.117 
   13150     311.2025    219.79852   -3159.9507   -2697.0606    1064.4712    11997.339 
   13200    310.84513    219.72149   -3157.3831   -2695.0246    1143.8213     11998.89 
   13250    305.17929    219.49302   -3149.7672   -2695.8361    1367.4648    12000.802 
   13300     313.6261     219.6828   -3156.0934   -2689.5984     1043.726    12003.168 
   13350     312.5307    219.64884   -3154.9614   -2690.0957    1023.9247     12005.86 
   13400    314.47296    219.67282   -3155.7606    -2688.006    973.65236     12008.83 
   13450    312.45734    219.60923    -3153.641   -2688.8844     932.2342     12012.06 
   13500    303.13991    219.31723   -3143.9076     -2693.01    1150.6032    12015.551 
   13550    302.99253    219.32567   -3144.1889   -2693.5105    1247.3049    12019.404 
   13600      312.246    219.69253   -3156.4177   -2691.9755    991.16144    12023.665 
   13650    303.01942    219.42546   -3147.5152   -2696.7968    1244.4484    12028.234 
   13700    310.60259    219.60994   -3153.6646   -2691.6667    990.46496    12033.179 
   13750    305.95623    219.47823   -3149.2743   -2694.1876    993.90562     12038.42 
   13800    319.95307    219.81889   -3160.6297   -2684.7238    538.05247    12043.901 
   13850    324.63749    219.97137   -3165.7122   -2682.8386    291.21473    12049.431 
   13900    311.37815    219.47082   -3149.0273   -2685.8759    677.02057    12054.875 
   13950    304.70651    219.25995   -3141.9983   -2688.7705     733.3666    12060.399 
   14000    310.51533    219.38247   -3146.0822   -2684.2142    417.81928    12066.067 
   14050     319.7439    219.78443    -3159.481   -2683.8862    50.971987    12071.697 
   14100    302.59661    219.25792   -3141.9306   -2691.8411    453.83704    12077.138 
   14150    298.02086    219.05393    -3135.131   -2691.8476    532.66463    12082.539 
   14200    285.99822    218.69525   -3123.1749   -2697.7742    811.43392    12088.004 
   14250    302.40459    219.29417    -3143.139   -2693.3351    201.48372    12093.597 
   14300    301.61337    219.21172   -3140.3906   -2691.7635    75.318029    12099.097 
   14350     308.7604     219.5171   -3150.5701   -2691.3124   -224.15245    12104.374 
   14400    296.88527    219.16188   -3138.7292   -2697.1349    79.844368    12109.311 
   14450    299.90936     219.2279   -3140.9299   -2694.8374     -14.6085    12114.022 
   14500    300.18375    219.28239   -3142.7465   -2696.2459   -143.71647    12118.484 
   14550    294.76402    219.15739   -3138.5796   -2700.1404   -112.75583    12122.638 
   14600     308.9507    219.58847    -3152.949   -2693.4082   -560.44009    12126.456 
   14650    299.84784    219.39463   -3146.4877   -2700.4868   -341.91363    12129.745 
   14700    286.02246    218.99363   -3133.1211   -2707.6843    32.130629    12132.608 
   14750    285.67927     219.0127   -3133.7566   -2708.8303   -70.353245    12135.234 
   14800    293.01721    219.23172   -3141.0573   -2705.2164   -346.35134    12137.576 
   14850     292.6079     219.2827   -3142.7566   -2707.5245    -370.2892    12139.508 
   14900     288.6101    219.14562   -3138.1873   -2708.9017   -326.37021    12141.017 
   14950     304.7015    219.67405   -3155.8015   -2702.5811   -862.00779    12142.062 
   15000    282.47466     219.1258   -3137.5267   -2717.3671   -371.36273    12142.472 
   15050    299.01939    219.72339   -3157.4464   -2712.6777   -809.86672    12142.386 
   15100    294.96444    219.52367    -3150.789   -2712.0517   -665.22233    12141.672 
   15150    295.67819    219.60964   -3153.6547   -2713.8558   -703.68293    12140.338 
   15200    282.65189    219.19773   -3139.9244   -2719.5012   -428.06824     12138.42 
   15250    284.92443    219.42372   -3147.4574   -2723.6539   -686.26927    12136.009 
   15300    291.11855    219.71329   -3157.1097   -2724.0929   -851.72134    12133.008 
   15350    291.59248    219.68862   -3156.2872   -2722.5655   -792.24531    12129.329 
   15400    296.25838    219.89111    -3163.037   -2722.3751   -892.11107     12124.97 
   15450    282.17135    219.44268   -3148.0892   -2728.3807   -491.88934    12119.936 
   15500    277.33854    219.28794   -3142.9314   -2730.4113   -369.24518    12114.404 
   15550    296.78461      219.968   -3165.5999   -2724.1553   -831.76726    12108.408 
   15600    276.05582    219.38097   -3146.0324   -2735.4203    -180.5447    12101.817 
   15650    281.03421     219.4779   -3149.2632   -2731.2461   -239.82327    12094.876 
   15700    298.83131    220.06478    -3168.826    -2724.337   -725.84991    12087.569 
   15750    296.97958    220.08495   -3169.4983   -2727.7636   -649.07734    12079.668 
   15800    279.71367    219.52328    -3150.776   -2734.7231    -22.74094    12071.236 
   15850    279.99491    219.58141   -3152.7138   -2736.2426    129.57098    12062.564 
   15900    290.58143    220.04563   -3168.1878     -2735.97   -160.06355    12053.723 
   15950    288.61896     219.9755     -3165.85   -2736.5512   -110.81682    12044.618 
   16000    292.04444    219.99748   -3166.5828   -2732.1888   -40.539313    12035.241 
   16050    294.51367    220.10838   -3170.2794   -2732.2126    30.712617    12025.635 
   16100    291.39267    220.10647   -3170.2156   -2736.7911    158.13808    12015.844 
   16150    277.05561    219.61615   -3153.8718   -2741.7725    714.54844    12005.948 
   16200    277.37612    219.60388   -3153.4628   -2740.8868    864.97464    11996.219 
   16250    303.79252     220.4562   -3181.8733   -2730.0049    251.77201    11986.695 
   16300    304.97027    220.58185   -3186.0617   -2732.4415    271.29208    11977.145 
   16350    302.94406    220.50791    -3183.597   -2732.9907    459.72097    11967.553 
   16400    294.68559    220.23328   -3174.4427   -2736.1203    842.06543    11957.996 
   16450    288.82584    220.05477   -3168.4925   -2738.8859    1138.2336    11948.666 
   16500    291.23842    220.18027   -3172.6757   -2739.4806    1130.9561     11939.73 
   16550    296.72321    220.37796   -3179.2655   -2737.9122    1084.8782    11931.179 
   16600    287.84688    220.01243   -3167.0811   -2738.9307    1456.5276     11923.03 
   16650    313.55669    220.91854   -3197.2847   -2730.8928    772.73398    11915.356 
   16700    295.04169    220.25277   -3175.0925   -2736.2403    1457.4145    11907.954 
   16750    301.44627    220.50561   -3183.5204    -2735.142    1398.7784    11901.059 
   16800    300.08179    220.37356   -3179.1185   -2732.7696    1500.1644    11894.694 
   16850     306.6154    220.57151   -3185.7168   -2729.6497    1403.2874    11888.872 
   16900    308.80633    220.60405   -3186.8016   -2727.4756    1450.0601    11883.583 
   16950    309.21983    220.63064    -3187.688    -2727.747    1518.1366    11878.824 
   17000    301.63927    220.40426   -3180.1418   -2731.4763    1784.4696    11874.622 
   17050    296.24335    220.36809   -3178.9364   -2738.2969    1882.7107    11871.114 
   17100    303.60719    220.48998   -3182.9994   -2731.4067    1764.9871    11868.335 
   17150     299.9782     220.3461   -3178.2035   -2732.0087    1940.6178    11866.264 
   17200    305.35464    220.61204    -3187.068   -2732.8761    1742.0415    11864.947 
   17250    290.94233    220.06804   -3168.9348   -2736.1801    2108.6705    11864.338 
   17300     296.6296    220.21329   -3173.7763   -2732.5622    1937.2064    11864.556 
   17350    316.38426    220.89432   -3196.4774   -2725.8798    1450.6526    11865.502 
   17400    289.21144    220.01359   -3167.1197   -2736.9396    2277.8149    11867.046 
   17450    292.64127    220.09251   -3169.7503   -2734.4686    2117.5547    11869.474 
   17500    304.66331    220.37534    -3179.178   -2726.0144    1716.0787    11872.742 
   17550    305.97293    220.43276   -3181.0922   -2725.9806    1636.5616    11876.658 
   17600    309.12555    220.47926    -3182.642   -2722.8412    1561.6873    11881.189 
   17650    304.70025    220.31656   -3177.2185        -2724    1697.4877    11886.282 
   17700    305.02878    220.36188   -3178.7294   -2725.0223    1647.2635    11891.985 
   17750    307.85292    220.40455   -3180.1516   -2722.2437    1501.2045    11898.289 
   17800     300.0885    220.16792   -3172.2641   -2725.9052    1557.2154    11905.133 
   17850    311.26303    220.59307   -3186.4357   -2723.4556    1115.0914    11912.508 
   17900    308.19565    220.49082   -3183.0274   -2724.6097    1161.7063    11920.217 
   17950    299.74385    220.15035   -3171.6783   -2725.8321    1373.2032    11928.277 
   18000    301.67906    220.12528   -3170.8426   -2722.1179    1306.1916    11936.771 
   18050    301.50817    215.05833   -3168.6109   -2720.1404    1248.9484    11945.675 
   18100    305.17427    215.19063   -3173.0211   -2719.0975    1026.1008    11954.934 
   18150    312.44703    215.32224   -3177.4081   -2712.6668    771.71548    11964.434 
   18200    315.85283    215.39968   -3179.9892   -2710.1821    517.19245    11974.047 
   18250    306.17316    215.13743   -3171.2476   -2715.8382     653.1412    11983.647 
   18300    287.80982    214.49494   -3149.8314   -2721.7361     1055.007    11993.322 
   18350     312.3717    215.19187   -3173.0624   -2708.4332    246.25841     12003.19 
   18400    308.80445    215.03032   -3167.6773    -2708.354    290.24283    12012.929 
   18450    290.53681    214.42969   -3147.6562   -2715.5047    825.39699    12022.547 
   18500    307.37836     214.9764   -3165.8799   -2708.6778    283.03617    12032.244 
   18550    299.17884    214.69238   -3156.4128    -2711.407    389.65211    12041.828 
   18600    299.00693    214.66991   -3155.6637   -2710.9135     348.8887     12051.29 
   18650    309.46162    214.99228   -3166.4094   -2706.1087   -75.011469    12060.637 
   18700    307.72114    214.87488    -3162.496   -2704.7841   -71.980663     12069.66 
   18750    292.43485    214.34838   -3144.9461   -2709.9714    265.43695     12078.36 
   18800    308.02024    214.80448   -3160.1494   -2701.9926   -283.80737    12086.846 
   18850    300.14477    214.54611    -3151.537   -2705.0944   -112.96316    12094.916 
   18900    306.25684    214.69885   -3156.6284   -2701.0946   -295.15186    12102.584 
   18950    305.88107    214.49452   -3149.8174   -2694.8425   -233.73188    12109.804 
   19000    302.73953    214.35281   -3145.0938   -2694.7917    -118.6527    12116.588 
   19050    300.17097    214.30159   -3143.3864   -2696.9048   -85.669576    12122.995 
   19100    295.92394    214.11397   -3137.1322   -2696.9677   -26.330499    12129.076 
   19150    311.80802    214.57824   -3152.6081   -2688.8173   -526.11829    12134.804 
   19200    313.21788    214.55736   -3151.9121   -2686.0243   -585.42179     12139.98 
   19250    309.13076    214.34747   -3144.9156    -2685.107   -383.23674    12144.548 
   19300    298.14885     213.9964   -3133.2135   -2689.7397   -86.966165    12148.621 
   19350    306.72117    214.28771   -3142.9235    -2686.699   -352.83652    12152.321 
   19400    289.62389    213.71947   -3123.9825   -2693.1889    92.394751    12155.601 
   19450    304.63691    214.12916   -3137.6387   -2684.5144   -317.15465    12158.611 
   19500    304.86871    214.07887   -3135.9624   -2682.4933   -317.77179    12161.201 
   19550    305.33336    214.07325    -3135.775   -2681.6148    -356.8543    12163.327 
   19600     304.8634     214.0384   -3134.6132    -2681.152   -328.07622     12164.98 
   19650    289.79179    213.65535   -3121.8449   -2690.8016    103.41951      12166.2 
   19700    304.41091    214.04238    -3134.746   -2681.9579   -349.09352    12167.167 
   19750    314.80407    214.34166   -3144.7222    -2676.475   -692.53538    12167.685 
   19800    308.86912    214.16675   -3138.8917   -2679.4723   -537.98899    12167.576 
   19850    301.36152    213.97955   -3132.6518   -2684.3994   -388.21822    12166.925 
   19900    310.98409     214.1332   -3137.7733    -2675.208   -544.40595    12165.778 
   19950    327.24108    214.65059   -3155.0196   -2668.2733   -955.74597    12164.059 
   20000    315.28923    214.24462   -3141.4874   -2672.5186   -512.40908    12161.612 
   20050    301.67548    218.78726   -3126.2421   -2677.5226    87.335533    12158.645 
   20100    305.67275    218.87183   -3129.0612   -2674.3961    61.632587    12155.479 
   20150    305.97048    218.90792   -3130.2642   -2675.1562    84.948367    12152.109 
   20200    306.69208    218.84822   -3128.2738   -2672.0926    143.06671    12148.557 
   20250     294.2415    218.41574   -3113.8581   -2676.1962    500.04458    12144.884 
   20300    305.04528    218.74725   -3124.9084   -2671.1767    237.63297    12141.211 
   20350    299.00076    218.59784   -3119.9282   -2675.1872    423.28032    12137.501 
   20400     317.3984    219.12165   -3137.3882   -2665.2821   -25.299364    12133.768 
   20450    310.18552    219.00698    -3133.566   -2672.1885    160.39125    12129.835 
   20500    303.54075    218.79376   -3126.4587   -2674.9648    437.33004    12125.783 
   20550    317.21249    219.23152   -3141.0507   -2669.2211     118.3506    12121.703 
   20600    305.91411    218.92106    -3130.702    -2675.678    415.50019    12117.501 
   20650     308.4291    218.93508   -3131.1695   -2672.4045    405.35037      12113.3 
   20700    300.75327     218.5985   -3119.9499   -2672.6022    727.80945    12109.136 
   20750    313.38086    219.01784   -3133.9279   -2667.7977    410.75016    12105.099 
   20800    309.38489     218.8823   -3129.4101   -2669.2236     535.0953    12101.099 
   20850    304.50801    218.87339    -3129.113   -2676.1804    725.25544    12097.156 
   20900    312.65894    219.07253   -3135.7511   -2670.6946    566.68289    12093.376 
   20950    309.42034    218.91851    -3130.617   -2670.3777    713.54511    12089.715 
   21000    315.88169    219.16534   -3138.8446   -2668.9946    575.81303    12086.195 
   21050    319.39874    224.30701   -3143.5669   -2668.4854    454.16993    12082.755 
   21100     318.8293    224.26482   -3142.1607   -2667.9263     439.9595    12079.362 
   21150    322.23957    224.37653   -3145.8843   -2666.5774     346.4146    12075.984 
   21200    306.65263    223.87823   -3129.2742   -2673.1516    889.17349    12072.616 
   21250    312.22454    224.05649   -3135.2165   -2670.8061    762.78312    12069.482 
   21300     305.6782    223.96457   -3132.1522   -2677.4791    843.04649    12066.586 
   21350    316.55231    224.37155   -3145.7184   -2674.8708    511.57431      12063.9 
   21400    314.43305    224.37046    -3145.682   -2677.9866    569.45512    12061.294 
   21450    309.05717    224.19831   -3139.9436   -2680.2445    733.06388    12058.797 
   21500    304.11015    224.08032   -3136.0107   -2683.6699    859.71928     12056.48 
   21550    298.39947    223.96325   -3132.1084   -2688.2618    958.57639    12054.417 
   21600    302.08387    224.19874   -3139.9579    -2690.631    837.71512    12052.629 
   21650    297.37476    224.03793   -3134.5976   -2692.2751    954.29269    12051.093 
   21700    316.30744    224.83654   -3161.2179   -2690.7345    232.46723    12049.805 
   21750    311.54212    224.70046    -3156.682   -2693.2867    317.91823     12048.47 
   21800     294.0993    224.14185   -3138.0616   -2700.6112    963.43186    12047.106 
   21850    287.28406    223.97363   -3132.4545   -2705.1412    1199.8534    12046.027 
   21900     288.6199    224.02736   -3134.2453   -2704.9451    1076.5303    12045.372 
   21950    298.69887     224.4619     -3148.73    -2704.438    617.81742    12045.053 
   22000    303.59906    224.66913   -3155.6375   -2704.0569    450.88954    12044.848 
   22050     303.4506    219.77089   -3159.0296   -2707.6699    343.79489     12044.66 
   22100    300.90905    219.73414   -3157.8045   -2710.2251    320.62934     12044.42 
   22150    291.87801     219.4804   -3149.3466   -2715.2002    536.54072    12044.122 
   22200    302.60286    219.89165   -3163.0551   -2712.9563    155.60664    12043.852 
   22250    308.95171    220.11977   -3170.6589   -2711.1166   -3.4087528    12043.442 
   22300    293.55606    219.66444   -3155.4812   -2718.8388    404.82554    12042.841 
   22350    297.90896    219.81145   -3160.3818   -2717.2648    260.00924    12042.187 
   22400    291.87153    219.71736   -3157.2455   -2723.1087    302.09653    12041.455 
   22450    292.89795    219.80275   -3160.0918   -2724.4283    161.52809    12040.654 
   22500    292.56714    219.75758    -3158.586   -2723.4146     224.3931    12039.725 
   22550    293.67702    219.70856   -3156.9521   -2720.1298    303.28704    12038.711 
   22600    298.27817    219.89782   -3163.2607   -2719.5946    231.56094    12037.624 
   22650    283.20074    219.42966   -3147.6555   -2726.4158    732.98509    12036.459 
   22700    272.87268    219.08114   -3136.0381   -2730.1607    1011.4811    12035.448 
   22750    282.02889    219.32407   -3144.1357   -2724.6391    692.42039    12034.728 
   22800    296.80873    219.86291   -3162.0971   -2720.6166     233.3219    12034.152 
   22850    297.11216    219.91251   -3163.7502   -2721.8184     251.0729     12033.48 
   22900     289.8069    219.70455   -3156.8183   -2725.7525    427.04796    12032.714 
   22950    303.17738    220.21112   -3173.7039   -2722.7505    11.706632    12031.915 
   23000    289.71359    219.72909   -3157.6364   -2726.7094    432.96853    12030.946 
   23050    284.62772     219.5987     -3153.29   -2729.9278    599.28791    12029.962 
   23100    291.94475    219.82814   -3160.9378   -2726.6922    381.49715    12029.048 
   23150    299.47689    220.02807   -3167.6022    -2722.153    199.89541    12028.117 
   23200    299.22275    219.98519   -3166.1731   -2721.1019    306.45158    12027.064 
   23250    280.04415    219.33517   -3144.5058   -2727.9613    790.23686    12025.976 
   23300    299.68733    219.93961   -3164.6536   -2718.8914    189.31559    12025.022 
   23350     299.5049    219.95108   -3165.0359    -2719.545    233.72856     12023.98 
   23400    301.91542    220.05149    -3168.383   -2719.3067    204.03713    12022.828 
   23450    282.86582    219.43435   -3147.8116   -2727.0701    768.89054    12021.596 
   23500    295.15856    219.76853    -3158.951    -2719.925    489.74325    12020.504 
   23550    298.46487     219.9936   -3166.4535   -2722.5096    332.45062    12019.459 
   23600    295.61903    219.86781   -3162.2602   -2722.5493      438.745    12018.357 
   23650    283.83794    219.49241   -3149.7469   -2727.5595    708.86133    12017.302 
   23700    297.30866    219.92019   -3164.0062   -2721.7821    314.48394    12016.366 
   23750     299.2856    220.03479   -3167.8265   -2722.6618     257.4205    12015.383 
   23800    293.62553    219.71775   -3157.2584   -2720.5127    452.31429    12014.328 
   23850    311.03737    220.28539   -3176.1797   -2713.5352    52.622352     12013.24 
   23900    297.73405    219.73416   -3157.8052   -2714.9484    610.07834    12012.021 
   23950    287.83923    219.52376   -3150.7921    -2722.653    856.16165    12010.873 
   24000    311.45183    220.22615   -3174.2051   -2710.9441    210.86955    12009.885 
   24050    289.58153    219.52411   -3150.8038   -2720.0732    851.09938    12008.875 
   24100    300.78937    219.88328   -3162.7761   -2715.3748    569.05767    12008.037 
   24150    294.17946    219.65906   -3155.3021   -2717.7325    734.98523    12007.301 
   24200    287.24707    219.47935   -3149.3118   -2722.0536    937.25312    12006.711 
   24250    301.45257    219.91331    -3163.777   -2715.3891     530.8506    12006.355 
   24300    299.23456    219.79761   -3159.9202   -2714.8315    575.54623    12006.091 
   24350    301.82963    219.76794   -3158.9313   -2709.9826    610.67337    12005.901 
   24400    300.04185    219.75235   -3158.4117   -2712.1222    759.91285    12005.811 
   24450    308.64001    219.98139   -3166.0462   -2706.9676     546.9469    12005.856 
   24500    300.19207    219.68508   -3156.1693   -2709.6564    844.00934    12005.971 
   24550    299.07241    219.63688   -3154.5626   -2709.7151     911.8447    12006.271 
   24600    296.01763    219.67459   -3155.8195   -2715.5157    934.76998     12006.81 
   24650     303.6201    219.83879   -3161.2928    -2709.681    718.83858    12007.581 
   24700    305.64683     219.8121   -3160.4034   -2705.7769    677.04361    12008.498 
   24750    301.40938    219.68363   -3156.1211   -2707.7975    877.93505     12009.54 
   24800    293.83142    219.48961   -3149.6535   -2712.6015    1056.5306      12010.8 
   24850    314.77684    220.00139   -3166.7131   -2698.5064    486.12198    12012.319 
   24900    303.84614    219.56974   -3152.3246   -2700.3765    831.36723    12013.899 
   24950    305.46499    219.69531   -3156.5103   -2702.1543    795.87995     12015.62 
   25000    294.68242     219.3808   -3146.0266   -2707.7089    1001.3357    12017.535 
   25050    310.96738    219.89346   -3163.1154    -2700.575    523.22431    12019.681 
   25100    304.30006    219.60081   -3153.3603    -2700.737    742.88874    12021.893 
   25150    306.13609    219.72442   -3157.4808   -2702.1266    672.54698    12024.215 
   25200    307.26222    219.70255   -3156.7516   -2699.7223    685.11348    12026.641 
   25250    297.04894    219.37738   -3145.9128    -2704.075    945.80779    12029.179 
   25300    307.36125     219.6904   -3156.3468   -2699.1702    610.65375    12031.917 
   25350    308.23398    219.63812    -3154.604   -2696.1293    653.83123    12034.747 
   25400    307.53705    219.52718   -3150.9061   -2693.4681    705.32458    12037.661 
   25450    315.88853    219.80957    -3160.319   -2690.4587    375.48521    12040.656 
   25500    303.45577    219.36277   -3145.4257   -2694.0582     711.5475    12043.629 
   25550    315.90889    219.79527   -3159.8423   -2689.9517    371.19488    12046.678 
   25600    314.87794    219.69988   -3156.6628   -2688.3057    475.56724    12049.691 
   25650    314.34346    219.72082   -3157.3607   -2689.7986    580.60992    12052.681 
   25700    301.72177     219.2617   -3142.0567   -2693.2684    921.84732    12055.747 
   25750    305.44248    219.24436   -3141.4787   -2687.1562    757.14163    12059.011 
   25800    298.96595    219.01961   -3133.9872    -2689.298    809.37745    12062.424 
   25850    297.52031    218.96937   -3132.3124   -2689.7735    731.76003    12065.998 
   25900    308.84907    219.32774    -3144.258   -2684.8684    356.54502    12069.679 
   25950    305.17798    219.19505   -3139.8349   -2685.9058    468.32816    12073.304 
   26000     308.7657    219.19954   -3139.9847   -2680.7191    430.84958      12076.9 
   26050    322.87332    219.56432   -3152.1438   -2671.8942    107.56877    12080.437 
   26100    311.53335    219.22536   -3140.8454   -2677.4631    407.51163    12083.794 
   26150    319.10558    219.46459   -3148.8198   -2674.1745    212.83355    12087.051 
   26200    304.37925    218.99301   -3133.1002   -2680.3591    633.17817     12090.19 
   26250    312.62397    219.22272   -3140.7572   -2675.7527    442.69835     12093.35 
   26300    304.65858    218.85605   -3128.5349   -2675.3784    654.53089    12096.514 
   26350    305.48389    218.85784   -3128.5948   -2674.2106    571.35026    12099.743 
   26400    312.71672    219.04226   -3134.7418   -2669.5994    309.61078    12102.998 
   26450    318.27159    219.13932   -3137.9772   -2664.5723    215.02813    12106.145 
   26500     318.8401    219.18551   -3139.5169   -2665.2664    207.98912    12109.149 
   26550    323.56406    219.21724   -3140.5748   -2659.2978    53.949458    12111.976 
   26600    318.49617    219.01966   -3133.9885   -2660.2496    191.33134    12114.565 
   26650    311.64268    218.80154   -3126.7181   -2663.1733    395.56172     12116.99 
   26700    311.89962    218.74907   -3124.9691    -2661.042    508.82048    12119.338 
   26750    293.49578    218.19467    -3106.489   -2669.9362    1138.7774    12121.721 
   26800    307.10058    218.60069    -3120.023   -2663.2341    700.16914    12124.399 
   26850    321.55937    219.04768   -3134.9227   -2656.6275    249.60584    12127.188 
   26900    308.12837    218.58147   -3119.3825   -2661.0649    725.02164     12129.88 
   26950    310.78301    218.52183   -3117.3945   -2655.1283    740.07929    12132.655 
   27000    311.60019    218.46638   -3115.5459   -2652.0642    678.05788    12135.562 
   27050    326.00001    224.04442   -3134.8141   -2649.9138    134.35585    12138.544 
   27100    318.29662    223.79792   -3126.5972   -2653.1551    295.39375    12141.371 
   27150    320.63698    223.79917   -3126.6391   -2649.7159    216.42928    12144.081 
   27200    321.69164    223.81844   -3127.2813   -2648.7894    149.45732    12146.636 
   27250    302.11392    223.21538   -3107.1793   -2657.8077    747.63065    12149.044 
   27300    318.21947    223.72412   -3124.1372   -2650.8099    397.18524    12151.542 
   27350    312.37922    223.50487   -3116.8291   -2652.1887    516.77143    12154.043 
   27400    326.71796    223.93128   -3131.0428   -2645.0746    94.422005    12156.528 
   27450    314.26223    223.43783   -3114.5944   -2647.1532    464.66666    12158.858 
   27500    305.42444     223.0447   -3101.4899   -2647.1942    704.32812    12161.167 
   27550     311.8492    223.31708   -3110.5694   -2646.7174    436.08511    12163.583 
   27600    316.76301    223.40625   -3113.5417   -2642.3808    326.34807    12165.994 
   27650    314.80269    223.38427   -3112.8089   -2644.5638    385.65155    12168.328 
   27700    310.68865     223.2655   -3108.8499   -2646.7241    448.18748    12170.609 
   27750    306.28622    223.22995   -3107.6651   -2652.0875    580.04245    12172.885 
   27800     306.5911    223.23366   -3107.7886   -2651.7576    595.68196    12175.216 
   27850    310.51986    223.32751    -3110.917   -2649.0423    452.65332    12177.605 
   27900    319.84981    223.63849    -3121.283   -2645.5306    115.12359    12179.969 
   27950     312.6295     223.3711   -3112.3699   -2647.3572     184.0035     12182.16 
   28000    310.52733     223.2457     -3108.19   -2646.3042    155.92048    12184.175 
   28050    307.36563    228.14125   -3104.7082   -2647.5251    213.24952    12186.032 
   28100    307.77249    228.28214   -3109.4046   -2651.6163    165.52469    12187.784 
   28150    316.86918    228.51642    -3117.214   -2645.8951   -78.712749    12189.379 
   28200    309.63612    228.36209   -3112.0695   -2651.5092    77.673543     12190.72 
   28250    304.44071    228.19729   -3106.5765    -2653.744    174.68453    12191.873 
   28300    301.85592    228.13616   -3104.5387   -2655.5509    171.92231    12192.885 
   28350    293.08917    227.85886   -3095.2952   -2659.3473    352.83206    12193.784 
   28400    304.74954    228.26855   -3108.9517   -2655.6599    46.531739    12194.628 
   28450    308.38429    228.37065   -3112.3551   -2653.6569   -73.726437    12195.289 
   28500    312.54257    228.52282   -3117.4273    -2652.544   -302.32042    12195.674 
   28550    302.19785    228.30856   -3110.2855   -2660.7891   -133.25162    12195.691 
   28600    294.53113    228.19504   -3106.5015   -2668.4087    32.560065    12195.407 
   28650    300.95922    228.47081   -3115.6935   -2668.0395   -202.75301    12194.904 
   28700    306.33537    228.69055   -3123.0184   -2667.3677   -410.38754    12194.089 
   28750      297.681    228.45998   -3115.3327   -2672.5548   -152.01095    12192.859 
   28800    297.59599    228.50367   -3116.7892   -2674.1377   -110.46615    12191.331 
   28850    302.15593    228.72327    -3124.109    -2674.675   -256.41052     12189.53 
   28900     291.1238    228.41139   -3113.7131   -2680.6885     71.44797    12187.417 
   28950    292.75838     228.4292   -3114.3068   -2678.8509    12.092838    12185.129 
   29000    301.59084    228.86508   -3128.8359   -2680.2424   -361.48509     12182.63 
   29050    300.51008    223.80178    -3126.726     -2679.74   -409.57719    12179.753 
   29100    303.01033    223.97572    -3132.524   -2681.8191   -502.82601    12176.428 
   29150    292.42946    223.60849   -3120.2829   -2685.3163   -99.845529    12172.661 
   29200    305.48417    224.04605   -3134.8685   -2680.4839   -351.73488    12168.591 
   29250    306.04806    224.16211   -3138.7371   -2683.5138   -449.23978    12164.145 
   29300    314.07323    224.46964   -3148.9881    -2681.828   -766.62388    12159.218 
   29350    304.01139    224.18069   -3139.3564   -2687.1625   -408.75245    12153.701 
   29400    283.74723    223.46065   -3115.3549   -2693.3024    317.12918    12147.792 
   29450    289.05395    223.77827   -3125.9425   -2695.9966    151.00453    12141.817 
   29500    296.01132    224.08189   -3136.0631   -2695.7687   -95.149278    12135.749 
   29550    306.23175    224.47829   -3149.2764   -2693.7799   -397.55993    12129.429 
   29600    294.56965    224.11185   -3137.0618   -2698.9117    13.345731     12122.75 
   29650    276.73595    223.55832   -3118.6107    -2706.987    590.35815    12115.912 
   29700    306.45959    224.44414   -3148.1379   -2692.3025   -232.67867    12109.117 
   29750    297.83011    224.22632   -3140.8773   -2697.8776    94.321677    12102.076 
   29800    286.37634    223.91827    -3130.609   -2704.6459     491.3115    12094.903 
   29850    299.53343    224.35353   -3145.1176   -2699.5843    116.05771    12087.776 
   29900    293.52648    224.21172   -3140.3908   -2703.7924    347.79206    12080.579 
   29950    285.82952    223.88899    -3129.633   -2704.4832    677.48068    12073.388 
   30000     298.4085    224.30615   -3143.5385   -2699.6784    340.46897    12066.348 
   30050    300.83176    229.39907   -3146.6358   -2699.1714    366.50279    12059.345 
   30100    296.30911    229.31328   -3143.7761   -2703.0387    558.13145    12052.372 
   30150    294.43984    229.26957   -3142.3189    -2704.362    632.13775    12045.528 
   30200    290.37031    229.18421   -3139.4736   -2707.5698    883.02878    12038.872 
   30250    295.13638    229.37843   -3145.9476   -2706.9546    897.70356    12032.512 
   30300    299.59022    229.45896   -3148.6319   -2703.0142    884.95275    12026.462 
   30350    292.92836    229.31739    -3143.913   -2708.2042    1069.5625    12020.717 
   30400    296.89833    229.49393   -3149.7978    -2708.184    960.87113     12015.35 
   30450    298.89761    229.60319   -3153.4398   -2708.8522    892.91603    12010.324 
   30500    293.22409    229.48551    -3149.517   -2713.3684    1127.7304      12005.6 
   30550    298.33573    229.58059   -3152.6863   -2708.9345    1117.0625    12001.289 
   30600    300.74841    229.76935   -3158.9784    -2711.638    1066.6135    11997.388 
   30650    300.39226    229.72152   -3157.3838   -2710.5731    1029.8692    11993.868 
   30700    303.70873    229.83124   -3161.0415   -2709.2977    923.80434    11990.702 
   30750     302.2321    229.75803   -3158.6009   -2709.0536    998.05128    11987.852 
   30800    294.72867    229.52233   -3150.7444   -2712.3578    1212.5316    11985.355 
   30850    293.81508    229.55057   -3151.6856   -2714.6579    1177.4275     11983.29 
   30900    302.82118    229.87396   -3162.4653   -2712.0417    899.85552    11981.642 
   30950    301.54739    229.71608   -3157.2028   -2708.6739    1080.5479    11980.303 
   31000    304.74721    229.75894   -3158.6313   -2705.3429    1061.9983    11979.308 
   31050    295.18576    229.56381   -3152.1271   -2713.0606    1321.4441    11978.689 
   31100    290.39399    229.41252   -3147.0841   -2715.1451    1494.2197    11978.556 
   31150     304.8694    229.82752   -3160.9172   -2707.4471    1076.4059     11978.98 
   31200    310.66205     230.0023   -3166.7433   -2704.6571    993.81945    11979.775 
   31250     293.9807    229.35937   -3145.3122   -2708.0382    1602.8606    11980.902 
   31300    297.15424    229.57981   -3152.6604    -2710.666    1374.0897    11982.612 
   31350    293.46411    229.42739   -3147.5796   -2711.0739    1393.2844    11984.848 
   31400    295.45675    229.52751    -3150.917   -2711.4475    1233.5862    11987.581 
   31450    305.96464    229.89004   -3163.0013    -2707.902    896.48424    11990.723 
   31500    295.69695    229.50415   -3150.1384   -2710.3116    1287.5966    11994.163 
   31550    291.47326    229.33263    -3144.421   -2710.8766    1426.5898    11998.038 
   31600    301.97021    229.74938   -3158.3126   -2709.1548    1012.0184    12002.401 
   31650    298.51416    229.67708   -3155.9026   -2711.8854    1038.2273    12007.095 
   31700    295.85696    229.49026   -3149.6754   -2709.6106    1075.6283    12012.102 
   31750    290.88636    229.26305   -3142.1017   -2709.4303    1072.7309    12017.456 
   31800    303.14318    229.65338   -3155.1128   -2704.2103    623.05276    12023.109 
   31850    298.39921    229.44692   -3148.2308   -2704.3846     778.7593    12028.892 
   31900    281.23629    228.85717   -3128.5723   -2710.2547     1250.379    12034.872 
   31950    285.79038    229.10766    -3136.922   -2711.8305     964.9458    12041.239 
   32000    293.94975    229.37811   -3145.9371   -2708.7091    595.98534    12047.877 
   32050    292.77161    229.25202   -3141.7341   -2706.2585    554.32374    12054.607 
   32100    309.94146    229.80033   -3160.0109   -2698.9964    -11.21001    12061.356 
   32150    293.28196    229.20005   -3140.0018   -2703.7671    456.79404    12067.915 
   32200    285.09127    229.02005   -3134.0018   -2709.9501    632.26845    12074.461 
   32250    300.05977    229.44188   -3148.0628   -2701.7466     116.4579    12081.074 
   32300    295.49177    229.18562   -3139.5207   -2699.9991    207.51558    12087.534 
   32350    284.44827    228.82976   -3127.6586   -2704.5633    448.18467    12093.877 
   32400    306.61808    229.54414   -3151.4715   -2695.4003   -226.80355     12100.17 
   32450    299.06364    229.23156    -3141.052   -2696.2175    126.36467    12106.157 
   32500    282.19088    228.56369   -3118.7898   -2699.0522    677.15877    12111.986 
   32550    294.04888    228.98196   -3132.7322   -2695.3567    335.57117    12117.886 
   32600    284.72832    228.56113   -3118.7044   -2695.1926    747.66073    12123.786 
   32650    287.01497    228.61363   -3120.4545   -2693.5415    611.34552    12129.819 
   32700    289.51285    228.63586   -3121.1953   -2690.5668     354.9044    12135.942 
   32750    304.64663     228.9954   -3133.1799   -2680.0411   -145.87837    12142.001 
   32800    301.78155    228.84548   -3128.1827   -2679.3056    3.2563246    12147.782 
   32850     292.4042      228.532   -3117.7332   -2682.8041    300.70587    12153.319 
   32900    296.11921    228.60659   -3120.2196   -2679.7647    143.44538     12158.75 
   32950    285.34206    228.12244   -3104.0813   -2679.6566     480.4777    12164.057 
   33000    285.84164    227.97024   -3099.0079   -2673.8401    586.80895    12169.379 
   33050    305.41101    233.59821   -3119.9403   -2665.6646    53.864657    12174.762 
   33100    311.70886    233.76753   -3125.5843    -2661.941    -177.0494    12179.961 
   33150    302.46885    233.43103   -3114.3676   -2664.4682    19.345782    12184.846 
   33200    301.94705    233.35358   -3111.7861   -2662.6628    34.911152    12189.499 
   33250    294.18554    233.04524    -3101.508   -2663.9293    240.37266    12193.966 
   33300    313.76059     233.6771   -3122.5702   -2655.8751   -318.79982    12198.284 
   33350    311.51845    233.47167   -3115.7224   -2652.3623   -122.80263    12202.254 
   33400    295.27682    232.89462   -3096.4873   -2657.2854    441.69836    12205.944 
   33450    293.95685    232.85856   -3095.2853   -2658.0467    407.88013    12209.614 
   33500    298.39476    233.00725   -3100.2417   -2656.4021    278.02004    12213.275 
   33550    288.27704    232.51985    -3083.995   -2655.2047    666.57192    12216.906 
   33600     301.2706    233.00638   -3100.2126   -2652.0954    204.08699    12220.629 
   33650    305.51258    233.12325   -3104.1085   -2649.6817   -5.4350369    12224.263 
   33700    301.40917    232.88996   -3096.3321   -2648.0088    135.99854    12227.691 
   33750      300.131    232.85137   -3095.0455   -2648.6234    158.14006    12230.963 
   33800    315.63428    233.26497   -3108.8322   -2639.3501   -227.55354    12234.083 
   33850    298.95179    232.69187   -3089.7289   -2645.0608    271.80011    12236.902 
   33900    295.83919    232.67898   -3089.2994    -2649.261    339.65595    12239.612 
   33950    302.75826    232.86244   -3095.4145   -2645.0846    41.893685    12242.283 
   34000    308.06435    233.01846   -3100.6154   -2642.3931   -155.59072    12244.753 
   34050    299.44048     232.7173   -3090.5767   -2645.1817    114.31164    12246.946 
   34100    302.49065    232.81357   -3093.7856   -2643.8536    28.675043    12248.966 
   34150    312.73151    233.15531   -3105.1771   -2640.0127   -324.94869    12250.773 
   34200    305.69676    232.96382   -3098.7939   -2644.0931   -189.76053    12252.206 
   34250    306.80076    232.97726    -3099.242   -2642.8992   -241.96574    12253.297 
   34300    305.34761    232.92699   -3097.5664    -2643.385   -236.34038     12254.06 
   34350     308.4892    232.95019   -3098.3397   -2639.4854   -256.67255     12254.48 
   34400    301.22689      232.721      -3090.7   -2642.6479    44.252478    12254.563 
   34450    306.79101    232.90892    -3096.964   -2640.6356   -41.590592    12254.445 
   34500    307.27922    233.02459   -3100.8195    -2643.765    -215.2662    12254.097 
   34550    312.51278    233.18058   -3106.0195   -2641.1804   -456.15941    12253.415 
   34600    300.37099    232.67291   -3089.0971    -2642.318    26.924057    12252.319 
   34650    297.15907    232.61305   -3087.1016      -2645.1    274.51337    12251.019 
   34700    303.20189    232.82579   -3094.1929   -2643.2031    152.51367    12249.662 
   34750    298.94912    232.74919   -3091.6398   -2646.9757    236.20135    12248.214 
   34800    306.32063    233.02019   -3100.6729   -2645.0441   -110.46008    12246.674 
   34850    319.44381    233.50494   -3116.8315    -2641.683   -554.85153    12244.849 
   34900     303.0095    232.90022    -3096.674   -2645.9704   -2.3029477     12242.58 
   34950    297.10444    232.62952   -3087.6507   -2645.7304    256.23027     12240.11 
   35000    304.16371    232.92201   -3097.4003   -2644.9798    81.052665    12237.571 
   35050    303.00982    237.77994   -3092.6648   -2641.9606    198.99848    12234.916 
   35100    303.03637    237.79876   -3093.2921   -2642.5485    240.13299    12232.182 
   35150    301.40952    237.79144    -3093.048   -2644.7242    298.13134    12229.403 
   35200    290.75545    237.44505   -3081.5017    -2649.025    607.67659    12226.642 
   35250    305.60515    237.98767   -3099.5891   -2645.0246    123.44869    12223.999 
   35300    311.21063    238.15015    -3105.005   -2642.1028   -33.660032    12221.275 
   35350    297.04145    237.65741   -3088.5804   -2646.7537      348.541    12218.397 
   35400    304.83326    237.87524   -3095.8413   -2642.4249    119.55102    12215.479 
   35450    298.14436    237.75075   -3091.6917   -2648.2246     339.7365    12212.485 
   35500    296.33271    237.55802   -3085.2674   -2644.4949    462.93244    12209.512 
   35550    304.74047    237.86532   -3095.5108   -2642.2325    197.22476    12206.574 
   35600    317.45939    238.25273   -3108.4242   -2636.2275   -138.45729    12203.563 
   35650    305.36464    237.91043   -3097.0142   -2642.8075    236.73364     12200.35 
   35700    315.64532    238.30009   -3110.0031   -2640.5046    12.434254    12197.026 
   35750    295.31315    237.58434   -3086.1448   -2646.8889    673.56815    12193.604 
   35800    298.97349    237.81211   -3093.7371   -2649.0367    650.39076    12190.329 
   35850    295.35897     237.7792     -3092.64   -2653.3159    816.79905    12187.259 
   35900    308.16995    238.19855   -3106.6184    -2648.239    416.38135    12184.426 
   35950    295.48987    237.88735   -3096.2449   -2656.7261    651.26516    12181.684 
   36000    299.34254     238.0118   -3100.3932   -2655.1439    551.19289    12179.093 
   36050    299.17357    242.89694   -3096.5646   -2651.5666    647.85317    12176.651 
   36100    300.25908    242.97847   -3099.2822   -2652.6696    626.40625    12174.387 
   36150    300.79891    243.06607   -3102.2023   -2654.7867    529.80775    12172.295 
   36200    306.37859    243.31448   -3110.4825   -2654.7676    372.14718    12170.317 
   36250    286.82477    242.69881   -3089.9605   -2663.3304     972.4197    12168.435 
   36300    300.07115    243.20895   -3106.9649   -2660.6318    491.71425    12166.847 
   36350    294.19483    243.10509   -3103.5031   -2665.9105    565.47763    12165.402 
   36400    287.46671    242.78408   -3092.8028   -2665.2178    810.74454    12164.113 
   36450    302.23719    243.27706   -3109.2353   -2659.6804    367.16871    12163.054 
   36500    285.65928    242.86675   -3095.5585    -2670.662    830.27555    12162.071 
   36550    288.53588    243.01159   -3100.3863    -2671.211    755.66231    12161.347 
   36600    300.34325    243.38612   -3112.8706   -2666.1328    310.35132    12160.856 
   36650    287.70023     242.9166   -3097.2201   -2669.2878    617.47487    12160.397 
   36700    290.81328    243.11398   -3103.7995   -2671.2368    450.97624     12160.08 
   36750    306.44675    243.76646   -3125.5486   -2669.7323   -110.17985    12159.828 
   36800    295.22961    243.42115   -3114.0384   -2674.9067    157.63378    12159.384 
   36850    289.82785    243.17911   -3105.9703   -2674.8734    322.63124    12158.848 
   36900    297.80674    243.44936   -3114.9788   -2672.0139    74.980061    12158.297 
   36950    287.99232    243.13496   -3104.4986   -2676.1319    420.24108    12157.653 
   37000     278.6324    242.86616   -3095.5388   -2681.0942    780.52708    12157.075 
   37050    281.87128    243.03436   -3101.1454   -2681.8833    683.84256    12156.733 
   37100    286.41351    243.29909   -3109.9696   -2683.9512    407.18991    12156.601 
   37150    308.63512    244.11885    -3137.295   -2678.2236   -395.25934    12156.488 
   37200    299.64713     243.8763     -3129.21   -2683.5076   -212.68119    12156.045 
   37250    298.05136    243.86296   -3128.7654   -2685.4366   -201.49865    12155.298 
   37300    269.79765    242.89421   -3096.4737   -2695.1702    714.68508    12154.345 
   37350    282.17244    243.36028   -3112.0094   -2692.2993    399.65413    12153.525 
   37400    296.39406    243.78608   -3126.2028   -2685.3391   -75.282832    12152.765 
   37450    291.62864    243.63514   -3121.1712   -2687.3957    52.693208    12151.835 
   37500    286.00887    243.57388   -3119.1293   -2693.7128    255.26181    12150.771 
   37550    289.42329    243.66475   -3122.1585   -2691.6633    150.14436    12149.681 
   37600    284.27036    243.42418   -3114.1394   -2691.3088    217.39154    12148.535 
   37650    291.70235    243.73621   -3124.5404   -2690.6553   -79.846603    12147.329 
   37700    293.36725    243.75225   -3125.0751   -2688.7135   -51.191767     12145.94 
   37750    288.04579    243.62065   -3120.6883    -2692.242    161.35767    12144.371 
   37800    286.40997    243.55789   -3118.5963   -2692.5832     180.7771    12142.726 
   37850    282.67405     243.6262   -3120.8732    -2700.417    141.46481    12141.021 
   37900    287.83693    243.71898    -3123.966   -2695.8304    8.0758068    12139.237 
   37950    286.09259     243.6862   -3122.8732   -2697.3322     96.32523    12137.316 
   38000    288.91798     243.8014   -3126.7134   -2696.9698    59.907456    12135.277 
   38050    284.43886    243.67385   -3122.4617   -2699.3805    215.45817    12133.138 
   38100    275.17449    243.28353    -3109.451   -2700.1498    639.43931     12130.98 
   38150    277.67693    243.29524   -3109.8414    -2696.818    573.40945        12129 
   38200    297.19182    244.05874   -3135.2912   -2693.2409   -178.27889    12127.139 
   38250    283.86433    243.60236   -3120.0786   -2697.8519    243.55982    12125.099 
   38300    301.01993     244.2139   -3140.4633    -2692.719    -225.5144    12122.966 
   38350    284.96341    243.56406   -3118.8021   -2694.9406    411.80668    12120.627 
   38400    276.20197     243.2593   -3108.6433   -2697.8138    746.46341    12118.335 
   38450     290.8706    243.86873   -3128.9578   -2696.3098    203.24504    12116.251 
   38500    296.02421    244.04344   -3134.7815   -2694.4679    98.161756    12114.131 
   38550     277.9941    243.48497   -3116.1656   -2702.6705    668.47839    12111.952 
   38600    297.02708    243.98065   -3132.6883    -2690.883    200.28614    12109.911 
   38650    295.60631    243.86408   -3128.8026   -2689.1106    360.90444    12107.851 
   38700    283.44136    243.38275   -3112.7584   -2691.1608    841.52975    12105.852 
   38750    300.36877    243.93352   -3131.1172   -2684.3414    452.23877    12104.091 
   38800    292.52526    243.60554   -3120.1845   -2685.0754    790.80096    12102.458 
   38850    302.77308    244.03553   -3134.5176   -2684.1656    507.46696    12101.033 
   38900    283.72568    243.32121   -3110.7072   -2688.6867    1174.0612    12099.773 
   38950    288.13919    243.32418   -3110.8061   -2682.2209    1142.6812    12098.933 
   39000    290.32156    243.36265   -3112.0884   -2680.2571    1065.7104    12098.567 
   39050     304.5857      243.775   -3125.8333   -2672.7852    664.51401    12098.611 
   39100     316.3325    244.17064   -3139.0212   -2668.5006    333.57543    12098.841 
   39150    300.37699     243.4545   -3115.1499   -2668.3619    974.45618    12099.117 
   39200    288.74916    243.03568   -3101.1893   -2671.6968    1375.4558     12099.74 
   39250    299.91458    243.45614   -3115.2046   -2669.1044     1040.357    12100.877 
   39300    306.30046    243.51959   -3117.3198   -2661.7211    892.91064    12102.412 
   39350    309.65555    243.58526   -3119.5086   -2658.9194    807.89543    12104.256 
   39400    299.75097    243.23218   -3107.7395   -2661.8826    1231.2796    12106.375 
   39450    286.97704    242.78663   -3092.8878   -2666.0312    1717.5101    12109.004 
   39500      309.574    243.33575   -3111.1917   -2650.7238    1093.2565    12112.306 
   39550    304.57969    243.12334   -3104.1113   -2651.0721    1177.5203    12116.067 
   39600    308.09116    243.17953   -3105.9844   -2647.7222    1078.2105    12120.271 
   39650    322.75476     243.7064   -3123.5467   -2643.4735    629.63346    12124.848 
   39700    312.80743    243.28392   -3109.4639   -2644.1865     1011.198    12129.623 
   39750    307.09572    243.08201   -3102.7337   -2645.9521    1220.4213    12134.732 
   39800     299.9815    242.79776   -3093.2585   -2647.0588      1337.01    12140.325 
   39850    305.97313    243.04446   -3101.4821   -2646.3703    994.26956    12146.436 
   39900    312.88381    243.21462   -3107.1542   -2641.7632    669.49544    12152.906 
   39950    301.88631    242.85503   -3095.1677   -2646.1347    962.48453     12159.58 
   40000    289.31132    242.45439    -3081.813   -2651.4844    1348.1751      12166.6 
   40050     303.5405    242.90256    -3096.752   -2645.2585     864.2903    12174.106 
   40100    292.48409    242.45796    -3081.932   -2646.8841    1168.6601    12181.966 
   40150    308.69702    243.02901   -3100.9669   -2641.8034    591.15634    12190.218 
   40200    316.72776    243.17418   -3105.8059   -2634.6973    276.98427    12198.617 
   40250    312.25622    243.00048    -3100.016   -2635.5585    377.51737    12206.984 
   40300    297.59298    242.44725   -3081.5749   -2638.9279    771.05993    12215.387 
   40350    302.99047    242.68173   -3089.3911   -2638.7157    524.51542    12223.983 
   40400    303.66249    242.69046   -3089.6819   -2638.0069    406.25429    12232.696 
   40450    309.39933    242.90931   -3096.9769   -2636.7688    86.765613    12241.423 
   40500    304.43289    242.62856   -3087.6186   -2634.7978    184.39706    12250.018 
   40550    300.00779    242.55452   -3085.1506   -2638.9118    200.13207    12258.516 
   40600    306.21179    242.77695    -3092.565   -2637.0982   -19.502216    12266.907 
   40650    287.77171     242.0097   -3066.9901   -2638.9515    535.49252    12275.159 
   40700    299.49986    242.37168   -3079.0561   -2633.5728    98.447477    12283.448 
   40750    297.28647    242.23402   -3074.4674   -2632.2763     16.72724    12291.629 
   40800    297.12435    242.31508   -3077.1693   -2635.2194   -177.87841    12299.627 
   40850    303.59707    242.52795   -3084.2652   -2632.6875   -390.29236    12307.332 
   40900     288.7695    242.00125   -3066.7082   -2637.1855    70.986109    12314.677 
   40950    310.07039    242.72052   -3090.6841   -2629.4779   -705.56013    12321.789 
   41000    317.62469    242.99059   -3099.6864   -2627.2438   -1025.4859    12328.335 
   41050    284.04128    246.74509   -3058.1695   -2635.6797    66.660806    12334.189 
   41100    279.45903    246.62232   -3054.0772    -2638.403     140.5975    12339.835 
   41150    288.93816    246.96802   -3065.6008   -2635.8271   -327.63942    12345.361 
   41200    289.84733    246.97596   -3065.8653   -2634.7394   -440.34876    12350.557 
   41250    297.80137    247.23292   -3074.4307   -2631.4738   -616.18929    12355.321 
   41300    294.27642    247.07072    -3069.024   -2631.3102   -531.87042    12359.576 
   41350     298.6349    247.22539   -3074.1797   -2629.9829   -752.11986    12363.334 
   41400    300.68418    247.27036   -3075.6787   -2628.4338   -753.50623    12366.519 
   41450    280.01607    246.45372   -3048.4573   -2631.9546   -34.395016    12369.158 
   41500    295.44506    246.97584   -3065.8613   -2626.4092   -540.54147    12371.526 
   41550    298.15685    247.04765    -3068.255   -2624.7692   -743.60698    12373.463 
   41600    304.51012    247.26043   -3075.3476   -2622.4119   -952.05611    12374.788 
   41650    285.93763    246.55022   -3051.6741   -2626.3636   -320.22436    12375.465 
   41700    288.85328    246.63129   -3054.3763   -2624.7289   -265.13665    12375.752 
   41750    276.57435    246.11302   -3037.1008   -2625.7174    155.31059    12375.772 
   41800    301.09334    247.03792   -3067.9306    -2620.077   -709.48375    12375.644 
   41850    296.63386    246.87669   -3062.5562   -2621.3358   -585.55505    12375.034 
   41900    297.15938     246.8503   -3061.6768   -2619.6748   -473.37264    12373.918 
   41950    289.19278     246.5504     -3051.68   -2621.5276    -177.6467    12372.386 
   42000    291.03149    246.51728   -3050.5759   -2617.6886   -173.81794    12370.585 
   42050    298.16157    246.74978   -3058.3259   -2614.8332   -428.74288    12368.524 
   42100    302.57887    246.86897    -3062.299   -2612.2359   -587.45923    12366.073 
   42150    306.84436    246.92669   -3064.2229   -2607.8152   -632.64287    12363.129 
   42200    310.39842    246.93502   -3064.5008   -2602.8066   -598.58936    12359.677 
   42250    298.55191    246.54857   -3051.6191   -2607.5458   -122.84727    12355.764 
   42300    300.77167    246.57227    -3052.409   -2605.0339    35.132558    12351.595 
   42350     297.7903    246.53496   -3051.1654   -2608.2249    206.29023    12347.313 
   42400    313.94869    246.97044   -3065.6814   -2598.7065   -166.19598    12342.956 
   42450    310.85034    246.88988   -3062.9958   -2600.6295    67.787662    12338.404 
   42500    308.98971    246.73475   -3057.8249   -2598.2261    234.79223     12333.73 
   42550     315.8253    246.96439   -3065.4798   -2595.7136    79.184018    12329.002 
   42600    314.76505    246.92288   -3064.0959   -2595.9067    238.09106     12324.18 
   42650    307.26464    246.59315   -3053.1049    -2596.072    536.36893    12319.352 
   42700    316.86898    247.00415   -3066.8049   -2595.4863     230.1198    12314.628 
   42750    312.42398    246.76866   -3058.9553   -2594.2483    474.08317    12309.909 
   42800    303.32278    246.40887   -3046.9624   -2595.7928    893.41916    12305.307 
   42850     312.7769     246.7154   -3057.1802   -2591.9482     589.6475    12301.006 
   42900    321.39069    247.11686   -3070.5621   -2592.5178     249.1164    12296.867 
   42950    309.66773    246.62172   -3054.0573     -2593.45    725.19558    12292.752 
   43000     308.0274    246.62145   -3054.0482   -2595.8808    850.25324    12288.865 
   43050    315.72462    246.90291   -3063.4303   -2593.8138     641.3164    12285.286 
   43100    309.97564    246.62245   -3054.0815   -2593.0163    866.67222    12281.939 
   43150    325.70904    247.13771   -3071.2571   -2586.7896    453.30867    12278.871 
   43200    310.35923    246.61467   -3053.8222   -2592.1864    1058.8199    12275.941 
   43250    298.88064    246.21989    -3040.663   -2596.1007    1492.3344    12273.424 
   43300    314.78326    246.73895    -3057.965   -2589.7487    1008.4367    12271.539 
   43350    303.54923    246.29712   -3043.2373   -2591.7309    1354.9164    12270.091 
   43400     309.4542    246.61513   -3053.8375   -2593.5479    1110.6491    12269.188 
   43450    327.47993    247.21155   -3073.7183   -2586.6167    508.40363    12268.723 
   43500    315.56422    246.77153   -3059.0508    -2589.673    847.96548    12268.411 
   43550    315.56189    246.74891   -3058.2971   -2588.9227    887.07662    12268.358 
   43600    310.58277    246.62487   -3054.1622   -2592.1938    1026.1177    12268.645 
   43650     305.7471    246.48021   -3049.3404   -2594.5647    1187.4153    12269.336 
   43700    305.50987    246.43801   -3047.9336   -2593.5109    1222.7329    12270.505 
   43750    322.81638    247.13236   -3071.0786   -2590.9137    631.59009    12272.132 
   43800     313.2738    246.82062   -3060.6874   -2594.7163    890.32687    12273.987 
   43850    308.79922    246.69735   -3056.5785   -2597.2631    1012.8357    12276.148 
   43900    316.87509      246.977   -3065.8999   -2594.5722    619.81397    12278.677 
   43950    327.35945    247.43187   -3081.0623   -2594.1399     100.8578    12281.353 
   44000    320.53186    247.20694   -3073.5645   -2596.7977    252.56331    12283.944 
[...]
   89400    304.62812     256.9485   -3064.9502   -2611.8389    1415.1127    12228.448 
   89450    311.26768    257.07625   -3069.2084   -2606.2213    1269.6872    12226.037 
   89500    297.80197    256.57154   -3052.3847   -2609.4269     1752.245    12224.254 
   89550    298.53458    256.66883   -3055.6276   -2611.5801    1745.7867    12223.262 
   89600    303.38464    256.82864   -3060.9548   -2609.6932    1523.1714    12223.093 
   89650    304.79321    256.97981   -3065.9935   -2612.6367    1435.2222    12223.638 
   89700     303.0294    256.78188   -3059.3962   -2608.6629    1553.8691    12224.851 
   89750    306.85016    256.84144   -3061.3814    -2604.965    1368.4657    12226.761 
   89800    303.34329    256.68523   -3056.1742    -2604.974    1337.4093    12229.292 
   89850     307.4573    256.91129   -3063.7098   -2606.3903    1123.5433     12232.38 
   89900    294.47704    256.38722   -3046.2407   -2608.2284     1605.492    12235.981 
   89950    291.47152    256.40569   -3046.8564   -2613.3147    1619.0315    12240.288 
   90000    303.49025    256.88874   -3062.9581   -2611.5393    1059.8329    12245.285 
   90050    310.95387    257.14198   -3071.3992   -2608.8789     675.6683    12250.725 
   90100    315.12888    257.28542   -3076.1807   -2607.4504    510.60134    12256.391 
   90150    308.25699    256.93815   -3064.6051   -2606.0962    747.30227    12262.189 
   90200    302.84045    256.79063   -3059.6876   -2609.2353    919.31398    12268.227 
   90250    297.92759    256.46995   -3048.9983   -2605.8536       1088.3    12274.624 
   90300    308.92525    256.86975   -3062.3251   -2602.8222    618.92717    12281.418 
   90350    301.57434    256.51778   -3050.5925   -2602.0235    797.10855     12288.43 
   90400    304.91343    256.65738    -3055.246   -2601.7104    710.19781    12295.679 
   90450    301.41618    256.48132   -3049.3774   -2601.0437     918.6911    12303.156 
   90500    297.53442     256.3468   -3044.8932   -2602.3333    1041.7164    12310.983 
   90550     310.2408    256.79944   -3059.9815   -2598.5218    470.36786    12319.171 
   90600     303.3142    256.53054   -3051.0181   -2599.8612    527.12658    12327.475 
   90650    300.19518    256.47072    -3049.024   -2602.5064     488.5096    12335.889 
   90700    289.38616    256.12503   -3037.5009   -2607.0609     725.1331    12344.414 
   90750    298.54203    256.42843   -3047.6142   -2603.5556    430.59685    12353.122 
   90800    289.22098    256.08789   -3036.2631   -2606.0688    672.84741    12361.931 
   90850    300.09194    256.37731   -3045.9102   -2599.5462    291.45391    12370.888 
   90900     298.3627    256.24222   -3041.4072   -2597.6153    286.60316    12379.863 
   90950    295.74911    256.17507   -3039.1689   -2599.2645    160.69354    12388.814 
   91000    301.77829    256.27206   -3042.4022   -2593.5298   -185.71853    12397.667 
   91050     303.0136    261.25582   -3041.8606   -2591.1508   -282.64593    12406.243 
   91100    294.50028    260.99856   -3033.2855   -2595.2386   -99.839361    12414.508 
   91150    301.82435    261.30336   -3043.4452   -2594.5043   -434.52364    12422.514 
   91200    295.23469    261.10129   -3036.7095   -2597.5703   -329.40603    12430.157 
   91250    302.18355    261.32834    -3044.278   -2594.8029   -559.31025    12437.425 
   91300    298.24343    261.03639   -3034.5462   -2590.9317   -340.51256    12444.246 
   91350    295.53834    260.92599   -3030.8662   -2591.2753   -278.40662    12450.697 
   91400    276.34311     260.1841   -3006.1366   -2595.0971    190.74144    12456.871 
   91450    291.20909     260.6749   -3022.4968   -2589.3453   -363.49121    12462.939 
   91500    309.12966    261.34541    -3044.847     -2585.04   -917.96809    12468.641 
   91550    286.77333    260.32772   -3010.9242   -2584.3706   -65.155172    12473.759 
   91600    286.68693    260.38354   -3012.7847   -2586.3596    -89.03849    12478.632 
   91650    291.13528    260.55112   -3018.3707   -2585.3291   -271.44965    12483.319 
   91700    288.99517    260.41331    -3013.777   -2583.9186   -146.53084    12487.719 
   91750     281.7093    260.03226   -3001.0752   -2582.0539    137.59828    12491.902 
   91800    304.02428    260.94302   -3031.4339   -2579.2208   -669.71302    12495.964 
   91850     312.4711     261.1191   -3037.3034   -2572.5263   -921.45969    12499.531 
   91900    296.28457    260.47427   -3015.8091   -2575.1083   -362.71647    12502.471 
   91950    306.72679    260.78046   -3026.0152   -2569.7823   -721.09721    12505.008 
   92000    297.68915    260.36783    -3012.261    -2569.471   -486.67618    12507.047 
   92050    298.68798    265.33415   -3011.1382   -2566.8625   -410.25166    12508.666 
   92100    288.17375    264.92234   -2997.4112   -2568.7746    4.1653178    12509.953 
   92150    291.89723    264.99388   -2999.7961   -2565.6211   -100.01311    12511.115 
   92200    308.43924    265.60339   -3020.1131   -2561.3331   -564.00102    12512.082 
   92250    290.73512     264.8845   -2996.1501   -2563.7036     121.4103    12512.677 
   92300    301.56225    265.26856   -3008.9521   -2560.4011   -192.96292    12513.162 
   92350    295.15579    264.96146   -2998.7152   -2559.6933    86.712645    12513.466 
   92400    291.88909     264.7216   -2990.7199    -2556.557    227.44562    12513.707 
   92450    309.09079    265.24752   -3008.2507   -2548.5016   -367.58941    12513.925 
   92500    295.81389    264.79116   -2993.0386   -2553.0379    2.4115207     12513.88 
   92550    300.72998    264.96344   -2998.7814   -2551.4683   -44.665406    12513.688 
   92600    305.81287    265.12338   -3004.1127   -2549.2392   -127.76159    12513.365 
   92650    310.56434    265.24054   -3008.0179   -2546.0769   -186.75279    12512.869 
   92700    311.99626    265.23765   -3007.9217   -2543.8509   -160.62653    12512.159 
   92750    303.30783    264.92626   -2997.5421   -2546.3947     180.3282    12511.258 
   92800     291.2372    264.37836   -2979.2786   -2546.0853     628.9939    12510.378 
   92850    295.90338    264.54033   -2984.6777   -2544.5439    465.34569    12509.733 
   92900    294.92047    264.56617   -2985.5391   -2546.8673    466.26726    12509.273 
   92950     302.8316    264.89477   -2996.4924   -2546.0533    273.68869    12508.955 
   93000    321.79167    265.57716   -3019.2386   -2540.5979   -301.18005    12508.657 
   93050    321.20417    260.35933   -3011.9778   -2534.2109   -243.37162    12508.115 
   93100     318.8491    260.27533   -3009.1775   -2534.9136   -164.64424    12507.287 
   93150    310.23975    260.00519   -3000.1729   -2538.7148     161.8362    12506.254 
   93200    305.21914    259.72255   -2990.7518   -2536.7615    422.54233    12505.216 
   93250    311.69474    259.94483    -2998.161   -2534.5387    288.03196     12504.27 
   93300    313.83499    260.11635   -3003.8782   -2537.0724    170.93863    12503.373 
   93350    309.15106    259.87272   -2995.7574   -2535.9187    345.12248    12502.463 
   93400    302.68191    259.67294   -2989.0981   -2538.8817    523.18439    12501.626 
   93450    322.30653    260.37661   -3012.5537   -2533.1471   -112.95863    12500.913 
   93500    309.39747    259.84491   -2994.8305   -2534.6252    300.63174    12500.085 
   93550    301.16527    259.66642   -2988.8807   -2540.9202     565.1331    12499.284 
   93600     302.6542    259.75357   -2991.7856   -2541.6104    652.67382    12498.667 
   93650    307.85141    259.94508   -2998.1693   -2540.2636    501.23774    12498.295 
   93700    318.75984    260.40326   -3013.4421    -2539.311    184.33042     12498.07 
   93750     306.6124    259.92492   -2997.4972   -2541.4345    629.02257    12497.885 
   93800    319.95239    260.47878   -3015.9595   -2540.0545     133.0425    12497.869 
   93850    314.81717    260.31324   -3010.4413   -2542.1746    115.22566    12497.841 
   93900    321.52935    260.55158   -3018.3861   -2540.1356   -116.05329    12497.713 
   93950    309.48468    260.08344   -3002.7815   -2542.4464    383.99284    12497.434 
   94000    299.33721    259.70618   -2990.2059   -2544.9645    675.19783     12497.25 
   94050    305.90557    259.92803   -2997.6009   -2542.5895    294.16749    12497.312 
   94100    314.63154    260.30393   -3010.1309   -2542.1403   -97.081839    12497.399 
   94150    307.48563    260.04051   -3001.3502   -2543.9887    99.647461    12497.351 
   94200     310.6608    260.15973   -3005.3242   -2543.2398   -22.142776    12497.218 
   94250    310.73785    260.25241   -3008.4137   -2546.2147   -36.075277    12496.945 
   94300    309.67972    260.24875   -3008.2918   -2547.6667   -49.932249    12496.539 
   94350    310.60561    260.31261   -3010.4202   -2548.4179   -205.32002    12495.983 
   94400    312.78495    260.41733    -3013.911   -2548.6671    -306.1822    12495.182 
   94450    300.19711    260.07034   -3002.3447   -2555.8243    138.81484    12494.116 
   94500    299.43151    260.04291   -3001.4304   -2556.0488    214.65936    12492.998 
   94550    307.62711    260.34005    -3011.335    -2553.763   -100.66447    12491.863 
   94600     310.2515    260.54705   -3018.2351   -2556.7595   -289.60104    12490.555 
   94650    297.63533    260.15717    -3005.239    -2562.529    62.801335    12488.994 
   94700    294.11602     260.0272   -3000.9068   -2563.4315    164.09342     12487.33 
   94750    299.44235    260.28984   -3009.6613   -2564.2635   -34.655404    12485.627 
   94800    300.83428    260.40124   -3013.3747   -2565.9065   -68.511941    12483.789 
   94850    287.46155     259.9702   -2999.0066   -2571.4293    321.99791    12481.825 
   94900    296.82231    260.41205   -3013.7349   -2572.2342   -103.47473    12479.883 
   94950    307.08878    260.88634   -3029.5448   -2572.7735   -524.90395    12477.779 
   95000    304.05295     260.7281   -3024.2699   -2572.0142   -346.03338    12475.286 
   95050    293.16727    255.32515   -3010.8383   -2574.7742    44.670822     12472.49 
   95100    303.32511    255.75556   -3025.1854   -2574.0122   -348.51486    12469.566 
   95150      305.383    255.89921   -3029.9735   -2575.7395   -409.26668    12466.329 
   95200    297.17535    255.55536   -3018.5119   -2576.4861   -63.678615    12462.752 
   95250    294.60022     255.4662     -3015.54   -2577.3445   -5.9729833    12459.009 
   95300    302.38936    255.74192   -3024.7306   -2574.9493   -294.11214    12455.109 
   95350    294.50658    255.52665   -3017.5549   -2579.4987   -41.595322    12450.953 
   95400    293.49051    255.64412   -3021.4706   -2584.9257    42.450722    12446.634 
   95450    298.66767    255.86843   -3028.9476   -2584.7021   -74.729185    12442.211 
   95500    302.03983     256.0627   -3035.4233   -2586.1619    -196.4301    12437.623 
   95550    292.17371    255.75073   -3025.0245   -2590.4382    82.129083    12432.839 
   95600    297.95258    255.92097   -3030.6989    -2587.517   -34.751348    12427.962 
   95650     304.8318    256.11299   -3037.0997   -2583.6855   -114.29566    12422.944 
   95700    309.56357    256.26661   -3042.2203   -2581.7679   -259.99654    12417.736 
   95750    304.28351    256.18515   -3039.5049   -2586.9062   -146.98743    12412.278 
   95800    298.78125    256.09017   -3036.3388   -2591.9244    19.457314    12406.614 
   95850    288.75382    255.78082   -3026.0272   -2596.5278    450.04511    12400.865 
   95900    287.91403    255.76889   -3025.6298   -2597.3795    627.57753    12395.261 
   95950    302.06792    256.27138   -3042.3792    -2593.076     315.5321    12389.868 
   96000    302.85728    256.18143   -3039.3811   -2588.9039    341.49797    12384.554 
   96050     302.0729    256.16179   -3038.7262   -2589.4157    321.95871    12379.312 
   96100    297.16155    256.01579   -3033.8598   -2591.8545    475.75134    12374.146 
   96150    297.48704    256.07595    -3035.865   -2593.3756    488.22093    12369.111 
   96200    290.77863    255.74398   -3024.7993   -2592.2881    738.92781    12364.257 
   96250    306.39243    256.42314   -3047.4379   -2591.7024    192.16525    12359.638 
   96300    301.11173    256.23963    -3041.321   -2593.4402     398.5272    12355.061 
   96350    300.11021     256.2549   -3041.8301   -2595.4389    495.92412    12350.562 
   96400    290.47594    255.88467    -3029.489    -2597.428    834.58231    12346.241 
   96450    301.79794    256.36273   -3045.4243   -2596.5227     427.5812    12342.221 
   96500    285.69537    255.77592   -3025.8641   -2600.9139    1021.7363    12338.389 
   96550    293.83086     256.0461   -3034.8699   -2597.8188    880.48475    12334.965 
   96600    312.43011    256.81844   -3060.6148   -2595.8987    271.24535    12331.892 
   96650    309.16457    256.65235   -3055.0782   -2595.2193    437.69271     12328.89 
   96700    305.62757    256.58784   -3052.9279   -2598.3301    590.27451    12325.999 
   96750    297.98866    256.26109   -3042.0362   -2598.8007    873.58357    12323.314 
   96800     304.7752    256.50346   -3050.1154   -2596.7854    586.13094    12320.968 
   96850    316.47231    256.89593   -3063.1977   -2592.4691    164.52404    12318.827 
   96900     302.5538    256.36369   -3045.4564   -2595.4305    575.88054    12316.704 
   96950    311.67445    256.69176   -3056.3921   -2592.7999    239.34744    12314.719 
   97000    318.98853    257.05256   -3068.4186   -2593.9473    69.067834    12312.737 
   97050    293.34314    256.12143   -3037.3809   -2601.0552    1027.9045    12310.744 
   97100    294.64624    256.20863   -3040.2877   -2602.0237    977.36642    12309.132 
   97150    300.62638    256.42624   -3047.5412   -2600.3823    735.20479    12307.933 
   97200    308.71767    256.74034   -3058.0114   -2598.8173    409.86572     12307.02 
   97250    312.13068    256.85821   -3061.9403   -2597.6696    167.51107    12306.204 
   97300    305.34952    256.62031   -3054.0104   -2599.8261    459.75314    12305.355 
   97350    308.78517    256.74562   -3058.1873   -2598.8928    487.25144    12304.617 
   97400    304.50095    256.69565   -3056.5216   -2603.5995    599.15099    12304.029 
   97450    298.38594    256.44196   -3048.0653   -2604.2389     908.1943     12303.65 
   97500    293.61742     256.2626   -3042.0868   -2605.3531    1169.5781     12303.65 
   97550    302.33219    256.58084   -3052.6948   -2602.9986    844.35406    12304.129 
   97600    299.27971    256.45025   -3048.3418   -2603.1859    803.27448    12304.973 
   97650    304.05421    256.64205   -3054.7351   -2602.4775    478.26723    12306.108 
   97700    315.49956     257.1098   -3070.3267    -2601.045    51.093744    12307.349 
   97750    308.91628     256.9185   -3063.9501   -2604.4606     312.5192    12308.525 
   97800    289.77673    256.18608   -3039.5359   -2608.5149    1019.8294     12309.77 
   97850     286.9155    256.06931   -3035.6437   -2608.8786    1137.6849    12311.408 
   97900    287.08655    256.18005    -3039.335   -2612.3155    947.30489    12313.537 
   97950    301.66139    256.68442   -3056.1473   -2607.4488    319.52139    12316.033 
   98000    295.61329    256.43318   -3047.7727   -2608.0703    528.50353    12318.633 
   98050    299.57447    256.59509   -3053.1697   -2607.5753    499.40365    12321.377 
   98100    299.94496    256.58009   -3052.6698   -2606.5244    392.73835     12324.28 
   98150    301.41483    256.65065   -3055.0217     -2606.69      280.122     12327.25 
   98200    294.56168    256.44288    -3048.096   -2609.9578     431.9937    12330.268 
   98250    318.12742    257.23484   -3074.4947   -2601.3043   -342.49612    12333.332 
   98300    308.26801    256.92197   -3064.0656   -2605.5403   -48.355638    12336.126 
   98350    303.22342     256.8311   -3061.0365   -2610.0146    75.521835    12338.738 
   98400    304.25457    256.76013   -3058.6709   -2606.1153    -40.31862    12341.254 
   98450    295.85246    256.47543   -3049.1811    -2609.123     124.0613    12343.631 
   98500    291.71936    256.38103   -3046.0343   -2612.1239    241.50136    12345.929 
   98550    279.40318    255.96174   -3032.0578   -2616.4668    702.24918    12348.249 
   98600     284.0653    256.12702   -3037.5674   -2615.0418    514.51899    12350.793 
   98650    295.03386    256.58553   -3052.8509   -2614.0104   -1.6697684    12353.473 
   98700    301.51047    256.73826    -3057.942    -2609.468   -217.27188    12356.028 
   98750    313.74169    257.22659   -3074.2195   -2607.5526   -553.55774     12358.31 
   98800    302.45986    256.81488   -3060.4959   -2610.6098   -127.77764    12360.198 
   98850    293.07622    256.46151   -3048.7169   -2612.7882    197.86582    12361.868 
   98900    281.69937      256.091   -3036.3665   -2617.3601    474.18018    12363.518 
   98950    286.96019    256.35234   -3045.0778   -2618.2463    142.28098    12365.274 
   99000    302.96522    256.99896    -3066.632   -2615.9942   -448.12279    12366.961 
   99050    284.05464    251.25185   -3041.7284   -2619.2186    90.326829    12368.341 
   99100    301.57487    251.87878   -3062.6259   -2614.0562    -454.3537    12369.545 
   99150    286.71866     251.3653   -3045.5101   -2619.0378    67.071106    12370.414 
   99200    294.11671    251.62813   -3054.2711   -2616.7948   -165.49306    12371.129 
   99250    311.90695    252.21379   -3073.7931   -2609.8551   -713.93504    12371.592 
   99300    292.31838     251.4606   -3048.6868   -2613.8853    -55.00465    12371.577 
   99350    291.64216    251.49454   -3049.8179   -2616.0223   -104.10368     12371.34 
   99400     300.3521    251.84019   -3061.3397   -2614.5887   -445.56851     12370.89 
   99450    299.73951    251.83408   -3061.1361   -2615.2963   -447.68338    12370.062 
   99500    293.49999    251.63773    -3054.591    -2618.032    -262.6464    12368.849 
   99550    302.27636    251.97716   -3065.9053   -2616.2921   -531.38172    12367.304 
   99600     287.4056    251.44411   -3048.1369   -2620.6429    16.307498    12365.357 
   99650    282.46336    251.20238   -3040.0792   -2619.9364    303.76552    12363.261 
   99700    290.31502    251.47704   -3049.2348   -2617.4132     74.00472    12361.162 
   99750    295.16074    251.68235   -3056.0783    -2617.049   -78.350192     12358.96 
   99800    294.85434    251.63123   -3054.3743   -2615.8008     -48.3313    12356.595 
   99850    303.81373    251.99462   -3066.4872   -2614.5873   -374.73294    12354.031 
   99900    291.87754    251.49751    -3049.917   -2615.7713    56.029983    12351.159 
   99950    282.06826     251.2723   -3042.4098   -2622.8547    400.41483    12348.178 
  100000    291.71768    251.64205    -3054.735   -2620.8271    70.492068    12345.249 
Loop time of 26.7195 on 1 procs for 100000 steps with 500 atoms

Performance: 323.360 ns/day, 0.074 hours/ns, 3742.591 timesteps/s
99.9% CPU use with 1 MPI tasks x 1 OpenMP threads

MPI task timing breakdown:
Section |  min time  |  avg time  |  max time  |%varavg| %total
---------------------------------------------------------------
Pair    | 22.102     | 22.102     | 22.102     |   0.0 | 82.72
Bond    | 0.0063014  | 0.0063014  | 0.0063014  |   0.0 |  0.02
Neigh   | 0.54517    | 0.54517    | 0.54517    |   0.0 |  2.04
Comm    | 0.77246    | 0.77246    | 0.77246    |   0.0 |  2.89
Output  | 0.018444   | 0.018444   | 0.018444   |   0.0 |  0.07
Modify  | 2.7408     | 2.7408     | 2.7408     |   0.0 | 10.26
Other   |            | 0.534      |            |       |  2.00

Nlocal:    500 ave 500 max 500 min
Histogram: 1 0 0 0 0 0 0 0 0 0
Nghost:    1572 ave 1572 max 1572 min
Histogram: 1 0 0 0 0 0 0 0 0 0
Neighs:    14360 ave 14360 max 14360 min
Histogram: 1 0 0 0 0 0 0 0 0 0

Total # of neighbors = 14360
Ave neighs/atom = 28.72
Ave special neighs/atom = 0
Neighbor list builds = 646
Dangerous builds = 0

write_data      ${walker}/final_restart_file
write_data      7/final_restart_file

quit
