LAMMPS (19 May 2017)
Processor partition = 7
  using 1 OpenMP thread(s) per MPI task
# gREM variables
variable        lambda world 1000 1005 1010 1015 1020 1025 1030 1035 1040 1045 1050 1055 1060 1065 1070 1075
variable        walker world 0 1 2 3 4 5 6 7 8 9 10 11 12 13 14 15
variable        replica world 1 0 3 9 12 2 5 13 10 4 7 14 6 15 8 11

variable        T0 equal 300.0
variable        press equal 0.0

units           real
atom_style      full
pair_style      lj/cut 5.0

# LJ particles
read_data       ${walker}/restart_file
read_data       7/restart_file
  orthogonal box = (0.944113 0.944113 0.944113) to (24.0559 24.0559 24.0559)
  1 by 1 by 1 MPI processor grid
  reading atoms ...
  500 atoms
  reading velocities ...
  500 velocities
  0 = max # of 1-2 neighbors
  0 = max # of 1-3 neighbors
  0 = max # of 1-4 neighbors
  1 = max # of special neighbors

#dump            dump all xyz 1000 ${walker}/dump.xyz

fix             fxnpt all npt temp ${T0} ${T0} 1000.0 iso ${press} ${press} 10000.0
fix             fxnpt all npt temp 300 ${T0} 1000.0 iso ${press} ${press} 10000.0
fix             fxnpt all npt temp 300 300 1000.0 iso ${press} ${press} 10000.0
fix             fxnpt all npt temp 300 300 1000.0 iso 0 ${press} 10000.0
fix             fxnpt all npt temp 300 300 1000.0 iso 0 0 10000.0
fix             fxgREM all grem ${lambda} -.03 -30000 fxnpt
fix             fxgREM all grem 1035 -.03 -30000 fxnpt
thermo_modify   press fxgREM_press

thermo          50
thermo_style    custom step temp f_fxgREM pe etotal press vol
WARNING: New thermo_style command, previous thermo_modify settings will be lost (../output.cpp:705)
timestep        1.0

temper/grem     100000 1000 ${lambda} fxgREM fxnpt 10294 98392 ${walker}
temper/grem     100000 1000 1035 fxgREM fxnpt 10294 98392 ${walker}
temper/grem     100000 1000 1035 fxgREM fxnpt 10294 98392 7
Neighbor list info ...
  update every 1 steps, delay 10 steps, check yes
  max neighbors/atom: 2000, page size: 100000
  master list distance cutoff = 7
  ghost atom cutoff = 7
  binsize = 3.5, bins = 7 7 7
  1 neighbor lists, perpetual/occasional/extra = 1 0 0
  (1) pair lj/cut, perpetual
      attributes: half, newton on
      pair build: half/bin/newton
      stencil: half/bin/3d/newton
      bin: standard
Per MPI rank memory allocation (min/avg/max) = 5.722 | 5.722 | 5.722 Mbytes
Step Temp f_fxgREM PotEng TotEng Press Volume 
       0    291.71768    226.64205    -3054.735   -2620.8271    70.492068    12345.249 
      50    308.52488    227.18539   -3072.8465   -2613.9391   -464.01719    12345.116 
     100    309.48042    227.22263   -3074.0875   -2613.7588   -516.54492    12344.523 
     150    315.48644    227.40141    -3080.047   -2610.7849   -612.79665    12343.398 
     200    310.40208    227.31009    -3077.003   -2615.3034   -491.52819    12341.732 
     250    316.33942      227.456   -3081.8665   -2611.3356   -628.89409    12339.542 
     300      314.728    227.40505   -3080.1684   -2612.0343   -549.94755     12336.78 
     350    313.24723    227.34591    -3078.197   -2612.2655   -501.74275    12333.469 
     400    312.49328    227.34117   -3078.0391   -2613.2291   -496.82367    12329.657 
     450    315.37909    227.52621    -3084.207   -2615.1045   -534.57775    12325.337 
     500    312.25798    227.41281   -3080.4269   -2615.9668   -407.66361    12320.476 
     550    308.11779    227.27039   -3075.6796   -2617.3777   -303.18602    12315.157 
     600    307.98678    227.34874   -3078.2915   -2620.1845   -306.00224    12309.446 
     650    312.42822    227.51328   -3083.7762   -2619.0629    -428.1838    12303.328 
     700    310.06303    227.43499   -3081.1665   -2619.9712   -353.51081    12296.762 
     750    298.37016    227.12945   -3070.9818   -2627.1788    13.387819    12289.787 
     800    308.97938    227.57417   -3085.8057   -2626.2223   -237.47168    12282.564 
     850    308.28716     227.6288   -3087.6267   -2629.0729   -177.71111    12275.015 
     900    308.64177    227.66085   -3088.6949   -2629.6137   -122.01385    12267.146 
     950    326.42435    228.28611   -3109.5371   -2624.0056    -578.7543    12258.948 
    1000    311.73482    227.88134   -3096.0447   -2632.3628   -130.12597    12250.269 
    1050    301.72259    227.59619   -3086.5396   -2637.7502    162.13771    12241.291 
    1100    306.36683    227.83103   -3094.3675   -2638.6701    44.826925    12232.162 
    1150    317.37702    228.13925   -3104.6418   -2632.5675   -104.30943     12222.85 
    1200     306.9043    227.98251   -3099.4169     -2642.92    187.46749    12213.285 
    1250    307.48062    228.05297   -3101.7656   -2644.4114    165.65042    12203.581 
    1300    311.55681    228.21935   -3107.3117   -2643.8946    157.09198    12193.774 
    1350    307.09258    228.25824    -3108.608   -2651.8311    417.62659    12183.852 
    1400    304.09336    228.13785    -3104.595   -2652.2792    627.63858    12173.952 
    1450    305.01171    228.21992   -3107.3307   -2653.6489    622.74908    12164.186 
    1500    310.50919    228.45649   -3115.2162   -2653.3573    484.19753    12154.541 
    1550    300.01105    228.13551   -3104.5171   -2658.2734     819.4582    12144.983 
    1600    307.96994    228.49578    -3116.526    -2658.444    560.02521    12135.638 
    1650    316.62489    228.83754   -3127.9181   -2656.9625    328.49776    12126.409 
    1700    319.17737    228.98777   -3132.9258   -2658.1736    423.61948    12117.157 
    1750     307.4713    228.71612   -3123.8708   -2666.5305    888.52848    12107.953 
    1800    321.10182    229.18674    -3139.558   -2661.9433    530.76725    12098.965 
    1850     291.5248    228.27835   -3109.2785   -2675.6574     1400.397    12090.136 
    1900    305.27755    228.70199   -3123.3996   -2669.3223    1026.7531     12081.78 
    1950    305.18539    228.71045   -3123.6818   -2669.7417    1035.4065     12073.81 
    2000    311.32175    228.94386   -3131.4621   -2668.3946    940.30839    12066.182 
    2050    318.71918    224.21517   -3140.5055   -2666.4349    829.59669     12058.85 
    2100    312.67303    224.12858   -3137.6193   -2672.5418    1063.9755    12051.759 
    2150    322.50116    224.38655   -3146.2184   -2666.5224    887.15412    12044.977 
    2200    312.37228    224.02256   -3134.0853   -2669.4552    1235.8585    12038.479 
    2250    327.88898    224.59371   -3153.1235   -2665.4135    809.96308    12032.358 
    2300    317.75881    224.27559   -3142.5196   -2669.8774    1090.8315    12026.501 
    2350    318.09948    224.39016   -3146.3388   -2673.1899    1036.0775    12020.975 
    2400    307.95256    224.11145   -3137.0483   -2678.9922      1375.37      12015.8 
    2450    320.46535    224.48976   -3149.6587   -2672.9908    1022.9685    12011.083 
    2500    298.99996    223.81847   -3127.2824   -2682.5427    1628.8821    12006.745 
    2550     308.2085    224.11957   -3137.3191   -2678.8823    1422.5704    12002.994 
    2600    315.41333    224.39149    -3146.383   -2677.2296     1156.799    11999.778 
    2650    305.46592    224.07596   -3135.8653   -2681.5079    1445.9407    11996.973 
    2700    302.19193    223.99412   -3133.1375   -2683.6499     1563.137    11994.692 
    2750    311.48503    224.32286   -3144.0953   -2680.7849    1299.8658    11993.004 
    2800    310.89229    224.44193   -3148.0645   -2685.6357    1327.1794    11991.791 
    2850    311.97885    224.52713   -3150.9042   -2686.8593    1356.5087    11991.034 
    2900    302.03516    224.22849   -3140.9497   -2691.6953    1600.3889    11990.799 
    2950    314.87565    224.61964   -3153.9881   -2685.6345    1216.6426    11991.148 
    3000    319.29459    224.74829   -3158.2763   -2683.3498    948.20917     11991.91 
    3050    309.41637    224.50767   -3150.2555   -2690.0221    1115.0174    11992.947 
    3100    296.79131    224.17116   -3139.0385    -2697.584    1470.9035     11994.35 
    3150    302.74193    224.40204   -3146.7346   -2696.4289    1250.3521    11996.266 
    3200    298.84259    224.32777    -3144.259   -2699.7533    1270.9017    11998.623 
    3250    305.57117    224.50097   -3150.0325   -2695.5185    1083.0615    12001.401 
    3300    311.71577    224.71472   -3157.1573   -2693.5037    845.74447    12004.521 
    3350       307.62    224.54014   -3151.3381   -2693.7767    876.31637    12007.875 
    3400     308.1109    224.62122   -3154.0405   -2695.7489    684.00156    12011.456 
    3450    313.28974    224.87582   -3162.5272   -2696.5324    450.58463    12015.155 
    3500     296.0274    224.36882   -3145.6273   -2705.3089    942.41837    12018.902 
    3550    304.82437    224.65268   -3155.0894   -2701.6863    768.03322    12022.874 
    3600    296.12037    224.41076   -3147.0254   -2706.5688    958.27873    12027.048 
    3650    298.07647     224.4999   -3149.9966   -2706.6304    776.19449    12031.484 
    3700    298.65686    224.56157   -3152.0525    -2707.823    648.71088    12036.115 
    3750    295.79669    224.43598   -3147.8661   -2707.8909    669.11573    12040.878 
    3800    297.51801     224.5245   -3150.8167   -2708.2812    396.20254    12045.774 
    3850    303.67479    224.82748   -3160.9158   -2709.2226    70.477817     12050.64 
    3900     292.2644    224.44013   -3148.0044   -2713.2832    389.14363    12055.358 
    3950    293.49134    224.54803   -3151.6011    -2715.055    260.18489    12060.052 
    4000    302.61216    224.88325   -3162.7749   -2712.6622   -19.812767    12064.636 
    4050    286.87933    224.31209   -3143.7362    -2717.025    414.76609    12069.032 
    4100    296.15338    224.66128    -3155.376   -2714.8703    35.405805    12073.375 
    4150    292.45367    224.63115   -3154.3716    -2719.369    91.307704    12077.523 
    4200    275.80803    224.02912    -3134.304   -2724.0605    559.18988     12081.52 
    4250    292.44844    224.62142   -3154.0473   -2719.0524    78.304308    12085.538 
    4300     285.7115    224.26193   -3142.0642     -2717.09    290.78694    12089.432 
    4350    293.60357    224.55828   -3151.9428   -2715.2297   -60.905993    12093.221 
    4400    292.25938    224.45794   -3148.5979   -2713.8843   -118.17283    12096.771 
    4450    280.22422    224.18925   -3139.6416   -2722.8293    149.17702     12100.04 
    4500    283.08895    224.23732   -3141.2438   -2720.1705    62.051567    12103.158 
    4550    293.52739    224.54718   -3151.5726   -2714.9729   -352.11503    12106.068 
    4600    296.25168    224.59831    -3153.277   -2712.6251   -513.90485    12108.575 
    4650    285.82463    224.20578   -3140.1928   -2715.0504    -246.8708     12110.61 
    4700    283.95697    224.20752   -3140.2507   -2717.8863   -295.39292    12112.273 
    4750    291.74969    224.48977   -3149.6589   -2715.7033   -536.64488    12113.542 
    4800    269.56283      223.688   -3122.9333   -2721.9791    177.05594    12114.365 
    4850    289.94052    224.37221   -3145.7404   -2714.4759   -428.90914    12114.991 
    4900    291.07243    224.35663    -3145.221   -2712.2728   -529.45659    12115.201 
    4950    287.86099    224.25434   -3141.8112   -2713.6398   -355.79662    12114.911 
    5000    290.58942    224.30449   -3143.4832   -2711.2534   -372.58371    12114.215 
    5050    295.04341    224.44983   -3148.3278    -2709.473   -420.37487    12113.089 
    5100    278.53147    223.87514   -3129.1715    -2714.877    153.24606    12111.557 
    5150    282.84984    224.10224   -3136.7413   -2716.0236   -1.4531116    12109.858 
    5200    307.58375    224.86507   -3162.1689   -2704.6614   -585.90489    12107.918 
    5250    287.01548    224.11854   -3137.2846   -2710.3709    142.10545    12105.525 
    5300    290.59589    224.15691   -3138.5638   -2706.3244    146.25192    12102.932 
    5350    283.77567    224.01971   -3133.9904   -2711.8956    354.05906    12100.221 
    5400    299.35093    224.48024   -3149.3413   -2704.0795   -6.9900493    12097.457 
    5450    312.21567     224.8562   -3161.8735   -2697.4763   -253.98812    12094.472 
    5500    298.39148    224.34937    -3144.979   -2701.1443     307.0484    12091.163 
    5550    288.48833    223.98622   -3132.8738   -2703.7693    636.63772    12087.784 
    5600    307.53268    224.55095   -3151.6985   -2694.2669    155.84679     12084.47 
    5650    286.16836    223.77179   -3125.7264   -2700.0726    838.12315    12081.099 
    5700    294.37295    223.95781    -3131.927   -2694.0696    557.75572    12077.911 
    5750    303.92887    224.35946   -3145.3154   -2693.2442    241.86767    12074.788 
    5800    290.78032    223.97855   -3132.6185   -2700.1048    649.03543    12071.614 
    5850    310.68822    224.68251   -3156.0836   -2693.9585     144.6759    12068.512 
    5900    306.54095    224.41106   -3147.0354    -2691.079    473.37992    12065.317 
    5950    309.57654    224.45598   -3148.5327   -2688.0611    611.56919    12062.136 
    6000    303.32499    224.24439   -3141.4798   -2690.3068    908.64517    12059.059 
    6050    301.58281    219.09255   -3136.4185   -2687.8369    1004.4641    12056.214 
    6100    306.92594    219.30322   -3143.4405   -2686.9115    798.76295    12053.646 
    6150     306.4666    219.27114   -3142.3715   -2686.5256    782.74996     12051.28 
    6200    305.52638    219.25331   -3141.7771   -2687.3298    913.89622    12049.087 
    6250    311.56139     219.3504   -3145.0133   -2681.5893    841.92065     12047.13 
    6300    322.92251    219.72651   -3157.5504   -2677.2276    477.20962     12045.37 
    6350    315.46518    219.42532   -3147.5107   -2678.2801    736.97782    12043.644 
    6400    302.05399    218.99364   -3133.1212   -2683.8388    1226.4931    12042.064 
    6450    314.00761    219.33127   -3144.3757   -2677.3132    981.68152    12040.858 
    6500    307.00696    219.12017   -3137.3391   -2680.6895    1100.3994    12039.954 
    6550    320.67202     219.4909   -3149.6965   -2672.7212    625.87917    12039.348 
    6600    322.01608    219.55383   -3151.7944   -2672.8199    605.06561    12038.845 
    6650    314.78861    219.19131   -3139.7103   -2671.4861     859.9852    12038.419 
    6700    327.14105    219.61706   -3153.9021   -2667.3046    479.24006    12038.139 
    6750    305.35858     219.0276   -3134.2533   -2680.0556    1122.0528    12037.911 
    6800    301.75227    218.98515   -3132.8385   -2684.0049    1180.7417    12038.006 
    6850    318.87454    219.46527   -3148.8424   -2674.5407    643.05998     12038.45 
    6900    313.63138    219.28537   -3142.8457   -2676.3428     783.7167    12039.031 
    6950    316.49082    219.34469   -3144.8229   -2674.0668    751.00071    12039.762 
    7000    307.33615     219.1327   -3137.7568   -2680.6175    1044.9511    12040.649 
    7050    308.95414    219.17007   -3139.0022   -2679.4563     1037.395    12041.834 
    7100    316.14656    219.38268   -3146.0894   -2675.8453    820.95962    12043.313 
    7150    308.24395    219.16422   -3138.8072   -2680.3177    1039.8001    12044.989 
    7200    301.09763    218.98644   -3132.8813   -2685.0214    1257.5086    12046.987 
    7250    304.70628    219.06413    -3135.471   -2682.2435    1112.0405    12049.408 
    7300    319.12738    219.50655   -3150.2183   -2675.5405     571.2569    12052.156 
    7350    320.77512    219.55845   -3151.9482   -2674.8195    459.51484    12054.974 
    7400    297.14329     218.8267   -3127.5566   -2685.5785    1024.8714    12057.827 
    7450    303.98243    219.15033   -3138.3443   -2686.1935    735.96519    12060.919 
    7500    288.72265    218.61494   -3120.4981    -2691.045     1144.133    12064.215 
    7550    302.07406    219.09171   -3136.3903    -2687.078    748.72468    12067.836 
    7600    299.75998    218.99821   -3133.2738   -2687.4035    785.82351    12071.657 
    7650    312.19618    219.33774   -3144.5914   -2680.2232    358.23596    12075.607 
    7700    306.09832    219.28622   -3142.8739   -2687.5758    341.66307    12079.515 
    7750    304.11646    219.18709   -3139.5695   -2687.2193    350.55476    12083.377 
    7800    312.11705    219.41743   -3147.2477   -2682.9973    197.76945    12087.156 
    7850    289.13811    218.68601   -3122.8671   -2692.7961    856.25537    12090.837 
    7900     297.5111    218.93019   -3131.0064   -2688.4812    551.06811     12094.69 
    7950    315.13684    219.49914   -3149.9715   -2681.2293    27.958062     12098.58 
    8000    307.46701    219.27925   -3142.6417   -2685.3078    145.49772    12102.275 
    8050    317.44123    214.57713   -3152.5709   -2680.4012   -286.61255    12105.752 
    8100    301.57797    214.13902   -3137.9672   -2689.3928   -14.964572     12108.84 
    8150    300.11078    214.18693   -3139.5642   -2693.1722   -14.194785    12111.647 
    8200    314.43636     214.5642   -3152.1399   -2684.4396   -336.45462    12114.174 
    8250     305.0115    214.22856   -3140.9521   -2687.2707   -71.518997    12116.292 
    8300    301.81552     214.1549   -3138.4966   -2689.5689   -25.257716    12118.093 
    8350     312.4261    214.52093   -3150.6977   -2685.9875   -386.24565    12119.591 
    8400     313.2018    214.53518   -3151.1727   -2685.3088   -375.83305    12120.642 
    8450    299.61475    214.21458   -3140.4859   -2694.8317    24.110057    12121.224 
    8500    286.88503    213.91633   -3130.5442   -2703.8245    238.66377     12121.56 
    8550    306.70193    214.51878   -3150.6259     -2694.43    -362.5896    12121.724 
    8600    294.94193    214.09116    -3136.372   -2697.6682    3.7135144    12121.494 
    8650    310.58724     214.6039   -3153.4633   -2691.4884   -399.41079    12120.941 
    8700    306.92562    214.47845   -3149.2817   -2692.7531   -319.82343    12119.937 
    8750    303.87124    214.42824   -3147.6081   -2695.6227   -263.04827    12118.485 
    8800    303.55906    214.30349   -3143.4495   -2691.9284    -237.9195    12116.647 
    8850    312.67633    214.65817   -3155.2724     -2690.19   -451.48058    12114.402 
    8900     299.0045    214.17603   -3139.2009   -2694.4544    15.713492    12111.701 
    8950    308.47909    214.62145   -3154.0484   -2695.2092   -271.78362    12108.695 
    9000    296.26114    214.20576   -3140.1919   -2699.5259     143.7824    12105.329 
    9050    306.48217    214.58758   -3152.9193   -2697.0503    -101.9453     12101.74 
    9100     315.5973     214.9126   -3163.7533   -2694.3262   -328.25462    12097.842 
    9150    306.75776    214.65809   -3155.2695   -2698.9906   -103.59669    12093.519 
    9200    284.38829    213.99899   -3133.2995   -2710.2935    458.34478    12088.915 
    9250    301.09642    214.38193   -3146.0644   -2698.2063    93.039058    12084.251 
    9300    291.94766    214.18912   -3139.6372   -2705.3872    468.11221    12079.434 
    9350    293.82701    214.19927   -3139.9757   -2702.9303    488.29151    12074.605 
    9400    314.06486    214.78813   -3159.6043   -2692.4566     -126.334    12069.758 
    9450    310.25629    214.64783   -3154.9277    -2693.445   -24.578335    12064.614 
    9500    309.89979    214.77275   -3159.0916   -2698.1392    -21.35309    12059.177 
    9550    307.97846    214.78626   -3159.5421   -2701.4475    94.955288    12053.471 
    9600     279.6348    213.91169   -3130.3897   -2714.4541    973.30867    12047.627 
    9650     311.8201    214.89019   -3163.0064   -2699.1976    136.46865    12041.954 
    9700    313.33768    214.97278   -3165.7594   -2699.6933    34.752129    12036.161 
    9750     325.3542    215.35154   -3178.3848   -2694.4451   -171.45917    12030.107 
    9800    302.82941    214.72616   -3157.5387   -2707.1029    514.11575    12023.753 
    9850    303.42492    214.84354   -3161.4513   -2710.1297    589.59527    12017.352 
    9900    306.37815    214.81544   -3160.5145   -2704.8003    630.24805    12011.011 
    9950    305.39813    214.77676   -3159.2253   -2704.9688    639.38344    12004.757 
   10000    299.62576    214.73156   -3157.7186    -2712.048    889.64092    11998.596 
   10050    302.13305    214.80039   -3160.0131   -2710.6131    952.61201    11992.624 
   10100    301.43116    214.88496    -3162.832   -2714.4759    911.74145    11986.904 
   10150    303.37955     215.0193   -3167.3101    -2716.056    824.18325    11981.415 
   10200    311.87296    215.30923   -3176.9744    -2713.087    630.58004    11976.103 
   10250    306.37679    215.11766   -3170.5886   -2714.8764    796.83195    11970.899 
   10300    306.46828    215.08975   -3169.6583   -2713.8099    821.15603    11965.852 
   10350    300.32568    214.84688   -3161.5627    -2714.851    1072.3097    11961.003 
   10400    317.47339    215.51284   -3183.7614   -2711.5438    598.05969    11956.405 
   10450    302.85284    215.05702   -3168.5674   -2718.0968    1017.0067    11951.931 
   10500    309.84153    215.33756   -3177.9186   -2717.0528    895.56364    11947.674 
   10550     289.2347    214.69486   -3156.4952   -2726.2805    1509.2217    11943.675 
   10600    303.82941    215.17566   -3172.5219   -2720.5987    1082.8606    11940.166 
   10650    316.51509    215.67872   -3189.2907   -2718.4985    691.78253    11936.975 
   10700    299.64123    215.09381   -3169.7937   -2724.1001     1209.123    11933.936 
   10750    301.80106    215.19598   -3173.1994   -2724.2932    1069.1764    11931.239 
   10800    306.84595    215.34835   -3178.2784   -2721.8683    910.14616    11928.853 
   10850    295.87861    215.06646    -3168.882    -2728.785    1295.4131    11926.717 
   10900    306.85255    215.37174   -3179.0581   -2722.6382    1087.4194    11924.971 
   10950    302.10184     215.3793   -3179.3101   -2729.9565    1123.8184    11923.567 
   11000    308.79623     215.5686   -3185.6201   -2726.3091    947.01682    11922.467 
   11050    298.39771    215.29275   -3176.4251   -2732.5812    1167.7472    11921.633 
   11100    290.54678    215.02201   -3167.4002   -2735.2339     1394.367    11921.164 
   11150    300.77791    215.39904    -3179.968   -2732.5837    1109.9757    11921.148 
   11200    298.36298    215.44956   -3181.6519   -2737.8595    1054.3052     11921.48 
   11250     299.3759    215.50625   -3183.5417   -2738.2427    979.81218     11922.11 
   11300    294.75668    215.34586   -3178.1954   -2739.7671    1121.7433    11923.007 
   11350    301.78485    215.57304   -3185.7679   -2736.8858    939.00952    11924.208 
   11400    299.17726    215.54949   -3184.9828   -2739.9793     904.1111    11925.663 
   11450    302.96505    215.70272   -3190.0908   -2739.4532    689.75257    11927.317 
   11500    284.88337    215.17287   -3172.4289   -2748.6865    1079.1954    11929.139 
   11550    298.38806    215.55803   -3185.2678   -2741.4382    783.01373    11931.229 
   11600    290.15259    215.36703   -3178.9011   -2747.3211     1046.285    11933.527 
   11650    298.06755    215.50639   -3183.5465   -2740.1936    815.16123    11936.097 
   11700    297.47627    215.46659   -3182.2195   -2739.7461     756.8059    11938.847 
   11750    284.83386    215.04324   -3168.1079   -2744.4391    1045.8817    11941.782 
   11800    294.66335    215.36872   -3178.9574    -2740.668    756.95037    11944.973 
   11850    287.00844    215.20379   -3173.4598   -2746.5564    887.41667    11948.352 
   11900    305.73276    215.66879   -3188.9598   -2734.2055    365.96291    11951.922 
   11950    293.74184    215.39765   -3179.9217    -2743.003    681.17605    11955.479 
   12000     285.9596     215.2336   -3174.4532     -2749.11    784.34838    11959.138 
   12050    292.98677    215.46255    -3182.085   -2746.2894    425.90457     11962.95 
   12100    287.23622      215.198   -3173.2667   -2746.0246     554.8102    11966.776 
   12150    302.88382    215.61748   -3187.2494   -2736.7327    141.44149    11970.615 
   12200    295.09797    215.36489   -3178.8298   -2739.8939    375.24635    11974.308 
   12250    282.38696     214.9634   -3165.4467   -2745.4175    699.93927    11977.956 
   12300    293.51059    215.35376   -3178.4588    -2741.884    271.08864    11981.706 
   12350    291.90027    215.27235    -3175.745   -2741.5655    340.34674    11985.375 
   12400    276.36821    214.78507   -3159.5022   -2748.4255    754.45867    11989.005 
   12450    298.24177    215.51154   -3183.7179   -2740.1058    64.158872    11992.729 
   12500    298.56626    215.48078   -3182.6925   -2738.5978    -42.60425    11996.283 
   12550    294.39551    215.39284   -3179.7612   -2741.8702    34.566257    11999.577 
   12600    292.82495    215.31765   -3177.2551   -2741.7002    108.99255    12002.632 
   12650    286.85269    215.11714   -3170.5713   -2743.8997    303.83922    12005.524 
   12700    289.20762     215.2015   -3173.3832   -2743.2088    201.18275    12008.321 
   12750     290.5087    215.18824   -3172.9413   -2740.8316    161.79053    12010.982 
   12800    304.07066    215.51154    -3183.718   -2731.4359   -253.24785    12013.467 
   12850    307.94994    215.63168   -3187.7228   -2729.6706   -437.40988    12015.572 
   12900    289.86046      215.062   -3168.7332   -2737.5878    88.960572    12017.226 
   12950    277.92586    214.66665   -3155.5549   -2742.1612    436.75075    12018.668 
   13000     292.1553    215.08952   -3169.6508   -2735.0919    9.0087454     12020.06 
   13050    303.51603     210.3998   -3179.9935   -2728.5364   -281.54401    12021.213 
   13100    299.65015      210.357   -3178.5667   -2732.8599    -166.0316    12021.963 
   13150    298.98363    210.29276   -3176.4253   -2731.7098   -96.350985    12022.353 
   13200    284.62588    209.83276   -3161.0922   -2737.7327    318.67672    12022.457 
   13250    301.33506    210.33418    -3177.806    -2729.593   -131.23751    12022.409 
   13300    301.22722    210.27468   -3175.8228   -2727.7701   -108.24703    12022.042 
   13350    301.90305    210.32356   -3177.4521   -2728.3942   -77.374901    12021.324 
   13400    302.04866     210.3684   -3178.9466   -2729.6721   -24.980098    12020.287 
   13450    291.79517    210.04503   -3168.1677   -2734.1445    200.07202    12018.991 
   13500    304.80675    210.53185    -3184.395    -2731.018   -247.94217    12017.483 
   13550    285.61609    209.95671   -3165.2237   -2740.3915     293.1297    12015.643 
   13600    292.07125    210.00467   -3166.8222   -2732.3884    208.97711    12013.659 
   13650    314.76659    210.70608   -3190.2025   -2722.0111   -427.16065    12011.498 
   13700    311.96044    210.59153   -3186.3843   -2722.3668   -279.74396    12008.877 
   13750    295.92681    210.08499   -3169.4996   -2729.3309    326.48001    12005.847 
   13800    297.21904    210.10444   -3170.1479   -2728.0572    379.33912    12002.677 
   13850    292.71322    209.95392   -3165.1305   -2729.7418    432.89842    11999.448 
   13900    301.54471    210.31428   -3177.1426   -2728.6176    204.49641    11996.161 
   13950    298.11338    210.19265   -3173.0882   -2729.6672    381.56717    11992.733 
   14000    298.36477    210.14637   -3171.5456   -2727.7506      444.519    11989.232 
   14050    301.06306    215.28063   -3176.0209   -2728.2124    446.08511    11985.701 
   14100    301.38814    215.25608   -3175.2026   -2726.9106     610.1008    11982.155 
   14150    296.34995    215.06382   -3168.7942   -2727.9961    896.42356    11978.679 
   14200    293.87017    214.87779   -3162.5931   -2725.4835    1036.1209    11975.423 
   14250    287.75786    214.76004   -3158.6679   -2730.6499     1121.069    11972.464 
   14300    308.78849    215.41441   -3180.4803   -2721.1808    530.31287    11969.813 
   14350    306.53421    215.27299   -3175.7665   -2719.8201    629.05237    11967.217 
   14400    302.57721    215.16115   -3172.0383   -2721.9776    776.24341     11964.68 
   14450    299.22637    215.06869   -3168.9563   -2723.8797    966.59222    11962.299 
   14500    305.65935    215.31675    -3177.225   -2722.5799    798.17917    11960.153 
   14550    309.29462    215.45986   -3181.9954   -2721.9431    602.49783     11958.18 
   14600    319.74701    215.70138   -3190.0462   -2714.4467    433.99532    11956.235 
   14650    294.20424    214.84303   -3161.4342   -2723.8277    1241.6114    11954.318 
   14700    293.56383    214.91977   -3163.9922   -2727.3383    1258.2995     11952.75 
   14750     302.3615     215.1274   -3170.9135   -2721.1737    1043.7345     11951.59 
   14800    318.34299    215.60884   -3186.9612   -2713.4502    721.62609    11950.713 
   14850    302.13341     215.0095   -3166.9832   -2717.5827    1276.6494    11950.003 
   14900    303.65824    215.05429   -3168.4762   -2716.8076    1236.2547    11949.649 
   14950    305.91195    215.16601   -3172.2002   -2717.1794    1151.1065    11949.697 
   15000    301.82019    215.05935   -3168.6449   -2719.7103    1298.0811    11950.103 
   15050    295.90089    219.89829   -3163.2763   -2723.1462    1402.5973    11950.937 
   15100    307.29588    220.22391   -3174.1305   -2717.0511    1061.2908    11952.249 
   15150    302.49106    220.10995   -3170.3317   -2720.3992    1051.8341    11953.915 
   15200    314.97551    220.55846   -3185.2821   -2716.7799    549.52273    11955.854 
   15250    299.86641    220.04894    -3168.298   -2722.2694    1027.7586    11957.891 
   15300    302.97664    220.03832   -3167.9441   -2717.2893    1045.4421    11960.206 
   15350    299.24399    219.89393   -3163.1309   -2718.0281    1112.8857    11962.856 
   15400    296.35414     219.8361   -3161.2034   -2720.3991       1119.9    11965.857 
   15450    319.59515    220.61262   -3187.0874   -2711.7138    385.76948    11969.172 
   15500    305.81991    220.10247   -3170.0822   -2715.1983    772.17736    11972.533 
   15550    301.08084    219.90202   -3163.4007   -2715.5658    895.07527    11976.038 
   15600    292.91591    219.69607   -3156.5357   -2720.8455    1120.7312     11979.79 
   15650    291.73436    219.61471   -3153.8236   -2719.8908       1215.8    11983.907 
   15700    297.02494    219.80126   -3160.0418   -2718.2398    977.42407    11988.426 
   15750    290.73203    219.65074   -3155.0248   -2722.5829    989.42191    11993.258 
   15800     304.0634    219.95701   -3165.2338   -2712.9625    505.20402    11998.374 
   15850    307.96572    219.99966   -3166.6553   -2708.5796    392.29172    12003.552 
   15900    311.51773    220.09761   -3169.9202   -2706.5612    330.46574    12008.692 
   15950    309.44891    220.13364   -3171.1212   -2710.8395    280.80387    12013.784 
   16000    298.23042    219.71676   -3157.2255   -2713.6303    603.69662    12018.816 
   16050    302.66092    219.82322   -3160.7741   -2710.5889    458.64771    12023.903 
   16100    297.19196    219.60031   -3153.3438   -2711.2933     624.1173    12029.039 
   16150    302.56732     219.7226     -3157.42   -2707.3741    486.78283    12034.261 
   16200    301.90368    219.69667   -3156.5556   -2707.4967    370.34192    12039.525 
   16250    315.69247    220.10624   -3170.2081   -2700.6395   -121.66782    12044.732 
   16300    299.69458    219.57714   -3152.5713   -2706.7983    304.31818    12049.695 
   16350    298.53872    219.44392   -3148.1306   -2704.0769    436.55882     12054.57 
   16400    300.51504      219.458   -3148.5999   -2701.6066    314.38603    12059.449 
   16450    297.54723    219.41987   -3147.3291   -2704.7502    251.14075    12064.264 
   16500    308.26237    219.73236   -3157.7453   -2699.2284   -63.006873    12068.975 
   16550    305.35266    219.61854   -3153.9512   -2699.7623     33.45815    12073.462 
   16600    301.33177    219.45343   -3148.4476   -2700.2394    218.85883    12077.744 
   16650    300.53379    219.35388   -3145.1295   -2698.1083    236.55647    12081.907 
   16700    299.28363    219.34946   -3144.9821   -2699.8204    161.96372    12085.964 
   16750    300.36618    219.27823   -3142.6076   -2695.8357    126.88105    12089.878 
   16800    301.10319     219.3098     -3143.66   -2695.7918    133.32856    12093.634 
   16850    292.13227    218.94959   -3131.6531   -2697.1285     409.2253     12097.26 
   16900    300.63405    219.16567   -3138.8556   -2691.6852    171.30237    12100.854 
   16950     308.2347    219.33449   -3144.4832   -2686.0074   -54.612526    12104.308 
   17000    312.39135    219.53019   -3151.0063   -2686.3479   -207.20024    12107.495 
   17050    300.07211    219.05543   -3135.1811   -2688.8466    218.87318    12110.373 
   17100    307.26337    219.30142   -3143.3805   -2686.3495   -5.4681813    12113.088 
   17150     314.5304    219.41905   -3147.3018   -2679.4617   -214.64868    12115.552 
   17200    301.14324    218.98071   -3132.6902   -2684.7625    153.80504    12117.685 
   17250    311.04754    219.31434   -3143.8115   -2681.1518   -160.59638    12119.624 
   17300    296.03511    218.80183   -3126.7276   -2686.3978     279.5619    12121.288 
   17350    299.02297    218.93181   -3131.0603   -2686.2863     240.8723    12122.832 
   17400    313.77079    219.29792   -3143.2639   -2676.5536   -148.97582    12124.244 
   17450    303.93912    218.87666   -3129.2219   -2677.1355    123.84062    12125.366 
   17500    293.86331    218.58786   -3119.5954    -2682.496     522.7075    12126.316 
   17550    296.54183    218.57183   -3119.0611   -2677.9776    565.29019    12127.298 
   17600     311.4639    219.03967   -3134.6558   -2671.3769    83.010915    12128.316 
   17650    313.58695    219.14697   -3138.2324   -2671.7956   -97.769589    12129.148 
   17700    316.40517    219.29502   -3143.1674   -2672.5387   -228.85235    12129.664 
   17750     316.6038    219.29356   -3143.1188   -2672.1946    -171.8253    12129.807 
   17800    303.31644    218.74098   -3124.6993   -2673.5391    292.20672    12129.634 
   17850    302.51278    218.73849   -3124.6164   -2674.6516    390.78569    12129.351 
   17900    301.80777    218.64459   -3121.4863   -2672.5701    434.76427     12129.04 
   17950    308.60819    218.94939   -3131.6462   -2672.6149    221.44507    12128.702 
   18000    317.19374    219.15149   -3138.3831   -2666.5815    30.309811    12128.242 
   18050    322.37592    214.24997   -3141.6656   -2662.1558   -107.69337    12127.527 
   18100     314.6644    213.95673    -3131.891   -2663.8515     120.1033    12126.506 
   18150    319.71557    214.13191   -3137.7304   -2662.1777    101.81676    12125.242 
   18200    301.67514    213.60288   -3120.0961   -2671.3772    691.36179    12123.785 
   18250    306.79341    213.87005   -3129.0017   -2672.6697    483.02281    12122.397 
   18300    321.88587    214.33836   -3144.6119   -2665.8311    11.807852     12120.98 
   18350    308.56749    213.88102   -3129.3674   -2670.3966    317.34783    12119.352 
   18400    328.76383    214.51784   -3150.5948   -2661.5835   -238.90868    12117.557 
   18450    308.06484    213.83987   -3127.9957   -2669.7725    432.69984     12115.43 
   18500    312.04147    213.99693   -3133.2309   -2669.0929    250.53978    12113.202 
   18550    320.85596    214.24047   -3141.3492   -2664.1002    58.161849    12110.822 
   18600    312.80362    214.03649   -3134.5498   -2669.2781    336.24594    12108.235 
   18650    337.44516     214.8605   -3162.0168   -2660.0927    -401.3084    12105.474 
   18700    309.68305    213.99136   -3133.0452   -2672.4151    403.90643    12102.304 
   18750    318.16856    214.28777   -3142.9255   -2669.6739     303.4299    12098.992 
   18800    310.07272    214.06753   -3135.5843   -2674.3746    491.43267    12095.588 
   18850    326.27317    214.66126   -3155.3753   -2670.0687   -29.465256    12092.119 
   18900    322.65778    214.59506   -3153.1685   -2673.2395   -30.672645     12088.38 
   18950    316.50671    214.41634   -3147.2112   -2676.4314     140.1281    12084.331 
   19000    314.00234    214.40041   -3146.6805   -2679.6258    334.85765    12080.077 
   19050    305.34038     214.2258   -3140.8599   -2686.6893    662.91176    12075.718 
   19100    297.56923    214.04258   -3134.7527   -2692.1411     822.7827    12071.424 
   19150    316.61354    214.66546   -3155.5155   -2684.5768    218.06401    12067.243 
   19200    310.13917    214.47424   -3149.1413   -2687.8328     396.1814    12062.939 
   19250    318.33573    214.85454    -3161.818   -2688.3177    138.83345    12058.522 
   19300    314.99518    214.87277   -3162.4256   -2693.8941    186.65163    12053.905 
   19350    306.00708    214.64042   -3154.6808   -2699.5185    409.51037    12049.117 
   19400    293.05854    214.28128   -3142.7094   -2706.8071    813.71029    12044.303 
   19450    306.15799    214.69046   -3156.3487   -2700.9619    493.74534    12039.588 
   19500    314.98544    215.08199   -3169.3997   -2700.8828     202.1832    12034.844 
   19550    317.78703    215.25627    -3175.209   -2702.5249    24.886257     12029.93 
   19600    305.41951    214.82536   -3160.8454    -2706.557     356.0099    12024.768 
   19650    315.43592     215.1769   -3172.5633   -2703.3763     119.3705    12019.456 
   19700    306.24217    214.99183   -3166.3943   -2710.8823      447.914    12013.954 
   19750    292.71282    214.55873   -3151.9578   -2716.5696    913.11637    12008.415 
   19800    307.18923     215.0524   -3168.4132   -2711.4925    475.99044    12003.028 
   19850    300.26886    214.86018   -3162.0059   -2715.3787    632.28643    11997.646 
   19900     304.3801    215.02175   -3167.3917   -2714.6494    528.71627    11992.292 
   19950    299.75727    214.94539   -3164.8462     -2718.98       679.78    11986.953 
   20000    300.54267    215.07496   -3169.1654    -2722.131     649.6382    11981.674 
   20050    299.14967    219.97828   -3165.9426   -2720.9802    787.53573    11976.472 
   20100    291.97688    219.72943   -3157.6478   -2723.3543    1147.1996     11971.43 
   20150    285.75252    219.61016   -3153.6721   -2728.6369     1306.838    11966.737 
   20200    298.19331    219.98479   -3166.1597   -2722.6198    921.90195    11962.448 
   20250    302.65822     220.2011     -3173.37   -2723.1888    813.83988    11958.387 
   20300     291.5981    219.87264   -3162.4214   -2728.6913    1159.0665    11954.523 
   20350    312.38035    220.56237   -3185.4125   -2720.7704    578.92974    11950.955 
   20400    314.38956    220.67505   -3189.1684   -2721.5378    560.06425    11947.469 
   20450    300.17287    220.16988   -3172.3293   -2725.8449    1090.7585     11944.04 
   20500    308.00128    220.44195   -3181.3983   -2723.2697    916.82065    11940.883 
   20550    302.94905    220.26538   -3175.5126   -2724.8989    1072.8338    11937.974 
   20600     294.8968    219.96271   -3165.4238   -2726.7872    1292.9234    11935.369 
   20650    292.60733    219.92253   -3164.0844   -2728.8532    1429.6782    11933.184 
   20700    296.17389    220.19116   -3173.0387   -2732.5025    1339.2692    11931.491 
   20750    298.84894    220.17359   -3172.4529   -2727.9377    1298.7766    11930.268 
   20800    293.39116    220.05504   -3168.5013   -2732.1042    1379.7786    11929.501 
   20850    310.84489    220.62002    -3187.334   -2724.9758    867.78609    11929.171 
   20900    288.70543    219.82136   -3160.7121   -2731.2847    1546.3485    11929.129 
   20950    296.08862    220.05145   -3168.3818   -2727.9724    1256.9397    11929.598 
   21000    315.60322    220.69528   -3189.8426   -2720.4068    566.00584    11930.478 
   21050    296.32695    220.07299   -3169.0996   -2728.3357    1131.2115    11931.505 
   21100    294.21241    220.02543   -3167.5144   -2729.8957    1278.6774    11932.856 
   21150    304.94468    220.39425   -3179.8082   -2726.2261    1003.0754    11934.617 
   21200    290.81201     219.9412   -3164.7066   -2732.1458    1399.8929    11936.736 
   21250    301.73592    220.44207   -3181.4023    -2732.593    1023.2388    11939.314 
   21300     294.1096    220.14596    -3171.532   -2734.0662    1249.9839     11942.25 
   21350    287.04888    219.85241    -3161.747   -2734.7835    1414.5249    11945.624 
   21400    297.71444    220.21606   -3173.8685   -2731.0409    974.13209    11949.512 
   21450    290.66645    219.96751   -3165.5837   -2733.2394    1160.4527     11953.74 
   21500     287.8163    219.86398   -3162.1325   -2734.0276    1269.8558    11958.362 
   21550      301.067    220.20641    -3173.547   -2725.7326    854.91627    11963.434 
   21600    303.17594    220.34515   -3178.1718   -2727.2206    639.08791    11968.772 
   21650    293.22248    219.99863   -3166.6209   -2730.4747    852.56543    11974.282 
   21700     300.9637    220.25468   -3175.1562   -2727.4955    579.01604    11980.017 
   21750    295.92327    220.09554   -3169.8512   -2729.6877    611.19477    11985.895 
   21800    299.33864    220.21659   -3173.8862   -2728.6427    450.60838    11991.898 
   21850    295.46998    220.12228   -3170.7427   -2731.2534     461.2734    11997.956 
   21900    291.65087    219.97385    -3165.795   -2731.9864    427.19692    12004.093 
   21950    300.55478    220.27135   -3175.7118   -2728.6594    69.080777    12010.247 
   22000    294.83378    220.17688   -3172.5628   -2734.0199    183.22682    12016.272 
   22050    284.81756    224.71678   -3157.2259   -2733.5814    557.52133     12022.23 
   22100    271.05958    224.24214   -3141.4048   -2738.2242    852.40611    12028.328 
   22150    298.61099    225.14994   -3171.6646   -2727.5034    -96.50071    12034.646 
   22200    293.04861    224.91997   -3163.9991   -2728.1115   -39.366823    12040.813 
   22250    297.48754    225.08263   -3169.4209   -2726.9307   -209.67134    12046.765 
   22300    288.71046    224.77061   -3159.0203   -2729.5854    105.03212    12052.457 
   22350    274.49737    224.32039    -3144.013   -2735.7189    523.07811    12058.047 
   22400    275.21549    224.36488   -3145.4959   -2736.1337    390.94399    12063.738 
   22450    278.60485    224.39797   -3146.5991   -2732.1955    227.73313    12069.477 
   22500    279.78429    224.40403    -3146.801   -2730.6431    138.27901     12075.19 
   22550    298.37517    224.86633   -3162.2111   -2718.4006   -373.75184    12080.782 
   22600     286.3419    224.46832    -3148.944   -2723.0321   -35.275686    12086.048 
   22650    290.17207    224.60199   -3153.3997   -2721.7907   -221.05478    12091.083 
   22700    292.36931     224.6139   -3153.7965   -2718.9194   -283.04264    12095.835 
   22750    286.96494     224.3972   -3146.5733   -2719.7347   -38.124597    12100.277 
   22800    291.54071    224.46369   -3148.7897    -2715.145    -96.25234    12104.484 
   22850     280.2419    224.00724   -3133.5748   -2716.7362    233.92135    12108.485 
   22900    293.78572    224.43533   -3147.8443   -2710.8603   -177.31772    12112.381 
   22950    289.86261    224.22244   -3140.7479   -2709.5992   -74.969794    12116.038 
   23000    290.14983    224.17302   -3139.1006   -2707.5247   -5.2761737    12119.449 
   23050    292.84361     224.2557   -3141.8566   -2706.2739   -104.96019    12122.654 
   23100    313.30852    224.87041   -3162.3471   -2696.3244   -746.16322    12125.571 
   23150    299.01112    224.33896   -3144.6318   -2699.8755   -307.85867    12127.942 
   23200    312.97502    224.71257   -3157.0855   -2691.5589   -613.53995    12129.869 
   23250     299.9082    224.19215   -3139.7383   -2693.6476    -151.4369    12131.307 
   23300    284.69527    223.67819   -3122.6065   -2699.1439    328.62528    12132.457 
   23350    291.92158    223.86158   -3128.7194   -2694.5082     76.81536    12133.525 
   23400    284.17135    223.65082   -3121.6941   -2699.0107    249.75151    12134.451 
   23450    293.83606    223.96946   -3132.3152   -2695.2564   0.67113565    12135.272 
   23500    306.38243    224.21944   -3140.6479   -2684.9273   -272.66697    12135.881 
   23550    299.61217    223.95113   -3131.7043   -2686.0539   -18.878089    12136.143 
   23600     289.3677    223.61915   -3120.6384   -2690.2259    385.71955     12136.17 
   23650    290.33137    223.62217   -3120.7389    -2688.893    447.98312     12136.17 
   23700     314.6032    224.37415   -3145.8051   -2677.8567   -246.11763    12136.132 
   23750    298.20676    223.75093   -3125.0309    -2681.471    158.96709    12135.797 
   23800    301.17199    223.91011    -3130.337   -2682.3665    51.306416     12135.27 
   23850    300.62024    223.91409   -3130.4695   -2683.3197     87.65532     12134.55 
   23900     293.5985    223.60599   -3120.1997   -2683.4942    322.69219    12133.657 
   23950    308.09209    224.00676   -3133.5586   -2675.2949   -8.1454707    12132.664 
   24000    298.94558    223.67354   -3122.4512   -2677.7924    343.04396    12131.467 
   24050     294.0883    223.49653   -3116.5511   -2679.1171    442.65028    12130.209 
   24100    305.35776    223.93869   -3131.2896   -2677.0931    69.424573    12128.941 
   24150    309.24714    224.05781   -3135.2604   -2675.2787    49.112657    12127.486 
   24200    305.76471    223.87828   -3129.2761   -2674.4742    277.86859    12125.822 
   24250    305.51307    223.99338   -3133.1125    -2678.685    243.66824    12124.048 
   24300    305.39021    223.94431   -3131.4769   -2677.2321    238.92427    12122.161 
   24350     315.3889    224.32515   -3144.1716   -2675.0545    -86.65965    12120.124 
   24400    298.34185     223.7359   -3124.5301   -2680.7692     431.5378     12117.84 
   24450    294.97639    223.57888   -3119.2959   -2680.5409    644.49575    12115.522 
   24500    308.57884    224.03372   -3134.4574   -2675.4698    297.15297    12113.283 
   24550    313.22664      224.204   -3140.1335   -2674.2326    192.65293    12110.951 
   24600    298.60744    223.73022   -3124.3408   -2680.1849    660.35038    12108.497 
   24650    297.19423     223.7043   -3123.4768   -2681.4229    698.13503    12106.123 
   24700    310.36634    224.08867   -3136.2889   -2674.6424    355.13684    12103.873 
   24750    306.83769    223.94605   -3131.5351   -2675.1373    503.09628    12101.592 
   24800    310.99463    224.14788   -3138.2627   -2675.6817    359.15687    12099.289 
   24850    316.89408    224.29161   -3143.0538   -2671.6978    192.35753    12096.932 
   24900    316.12945    224.24778   -3141.5928   -2671.3742    366.02523    12094.424 
   24950     301.8711    223.79521    -3126.507   -2677.4966    892.40631    12091.878 
   25000    300.30038    223.77784   -3125.9281    -2679.254    935.36827    12089.526 
   25050    300.41844     228.7458     -3124.86   -2678.0104    842.29451    12087.427 
   25100    319.21752    229.36766   -3145.5887   -2670.7769    266.87059    12085.507 
   25150    290.90331    228.43402   -3114.4672   -2681.7706    1114.4689    12083.576 
   25200    308.45805    229.00955   -3133.6516   -2674.8436     608.2925    12081.918 
   25250    304.79101    228.91212    -3130.404   -2677.0505    652.03736    12080.405 
   25300    311.45249    229.14851   -3138.2835   -2675.0215     510.3239    12078.961 
   25350    305.15611    228.90573   -3130.1911   -2676.2945    715.94955    12077.582 
   25400    304.23067    229.01309   -3133.7696   -2681.2496    727.61493    12076.334 
   25450    295.60274    228.76362   -3125.4541   -2685.7674    985.49536     12075.27 
   25500    297.61443    228.88809   -3129.6029   -2686.9239     877.2786      12074.5 
   25550      308.837    229.20079   -3140.0264   -2680.6548    399.93574    12073.955 
   25600    313.65591    229.34965   -3144.9884    -2678.449    260.01122    12073.405 
   25650    287.22347     228.5219   -3117.3967   -2690.1735    1009.3802    12072.835 
   25700    311.61708    229.34949    -3144.983   -2681.4762    292.77246    12072.495 
   25750    300.42241    228.93943   -3131.3144   -2684.4588    701.29056    12072.181 
   25800    305.10642    229.18625   -3139.5418   -2685.7191     549.6267    12071.967 
   25850    297.36651    228.91576   -3130.5254   -2688.2152    750.98773    12071.857 
   25900    299.61558    229.04168   -3134.7226   -2689.0672     715.1603    12071.916 
   25950    298.32978     229.0358   -3134.5266   -2690.7837     713.7369    12072.149 
   26000    302.12269    229.21618   -3140.5393   -2691.1547    570.50055    12072.539 
   26050    295.12564    224.06558   -3135.5194   -2696.5424    816.51401    12073.041 
   26100    297.64003    224.11426   -3137.1419    -2694.425    759.59896    12073.745 
   26150    298.07609    224.14546   -3138.1819   -2694.8163    658.96274    12074.638 
   26200    301.32328    224.23952   -3141.3174   -2693.1219    532.32136    12075.674 
   26250    309.53467    224.54874   -3151.6246   -2691.2153    190.55545     12076.77 
   26300    311.24621    224.71505   -3157.1683   -2694.2131   -33.511402    12077.753 
   26350    294.23861    224.09308    -3136.436   -2698.7784    419.34758    12078.532 
   26400    302.92544    224.48267   -3149.4225   -2698.8439    146.39257    12079.255 
   26450    303.62435    224.46622   -3148.8741   -2697.2559    56.125398    12079.854 
   26500    295.16135    224.31874   -3143.9581   -2704.9279    263.53087    12080.266 
   26550    277.53149    223.81243   -3127.0809   -2714.2738     733.9348     12080.63 
   26600    305.03574    224.65255    -3155.085   -2701.3674   -83.144868    12081.098 
   26650    298.62567    224.47459   -3149.1532   -2704.9701    105.75345    12081.353 
   26700    293.21713     224.2977   -3143.2567   -2707.1184    265.19489    12081.438 
   26750    303.43622    224.76127   -3158.7088   -2707.3705   -238.02978    12081.427 
   26800    304.10447    224.77817   -3159.2724     -2706.94    -307.9984    12081.075 
   26850    290.40048    224.36548   -3145.5158   -2713.5671    47.047624    12080.354 
   26900    291.13477    224.44935   -3148.3118   -2715.2709   -41.511923     12079.41 
   26950     289.5147    224.38617   -3146.2057   -2715.5745    25.264044    12078.221 
   27000    293.62409    224.47807   -3149.2691   -2712.5255   -40.915092    12076.789 
   27050    298.44059    219.76156   -3158.7188    -2714.811   -294.94729    12075.083 
   27100    301.40197    219.96235   -3165.4117   -2717.0992   -375.19163    12072.968 
   27150    288.65072      219.581   -3152.6999   -2723.3539    68.544468    12070.407 
   27200    305.90682    220.09659   -3169.8863   -2714.8731   -440.09744    12067.555 
   27250    288.14153    219.62864    -3154.288   -2725.6993    17.094473    12064.273 
   27300    287.56892    219.74705   -3158.2351   -2730.4981    37.723203    12060.705 
   27350    291.18282    219.83082   -3161.0272   -2727.9148   -6.7519079     12056.89 
   27400    295.39377    219.98004   -3166.0012   -2726.6254   -126.30044    12052.793 
   27450    300.70366    220.20457   -3173.4858   -2726.2119   -307.87443    12048.346 
   27500    295.91256    220.12549   -3170.8497   -2730.7022    -85.42897    12043.471 
   27550    287.62977    219.89386   -3163.1287   -2735.3012    229.69711     12038.28 
   27600    289.10133    219.98676   -3166.2255   -2736.2092    224.07109    12032.913 
   27650    291.45093    220.03066   -3167.6888   -2734.1777    198.61097    12027.398 
   27700    293.64278    220.07277   -3169.0922   -2732.3208    213.36027      12021.7 
   27750    286.70857    219.82105   -3160.7018   -2734.2445    504.04387    12015.845 
   27800     299.6881    220.15995   -3171.9983   -2726.2349    188.76041    12009.941 
   27850    302.82359    220.28424   -3176.1414   -2725.7143    113.93093    12003.844 
   27900    290.00211    219.95581   -3165.1937   -2733.8375    493.04767    11997.532 
   27950    283.57238    219.76693   -3158.8977   -2737.1053     772.0088    11991.182 
   28000    290.51067    220.07492   -3169.1641   -2737.0515    595.50286    11984.941 
   28050    305.74171    215.67588    -3189.196   -2734.4284    171.90229    11978.703 
   28100    291.65908    215.18738   -3172.9126   -2739.0918    738.70461    11972.295 
   28150    297.64895    215.36705   -3178.9016   -2736.1713    706.96149    11965.939 
   28200    296.46758    215.28118   -3176.0394   -2735.0664    787.98106    11959.674 
   28250    303.20857       215.48   -3182.6668    -2731.667    586.34204    11953.498 
   28300    311.60198    215.78467   -3192.8223    -2729.338    390.48346     11947.33 
   28350    297.45261    215.38692   -3179.5641   -2737.1259    869.14286    11941.099 
   28400    303.34268    215.61469   -3187.1564   -2735.9571    759.22604     11934.98 
   28450    301.81372    215.58183   -3186.0611   -2737.1361    821.58593     11928.96 
   28500    299.00529    215.41286   -3180.4285   -2735.6808    1029.1793    11923.062 
   28550     301.7352     215.5819   -3186.0632    -2737.255    930.21394    11917.405 
   28600    306.12066    215.73433   -3191.1443    -2735.813    824.33019    11911.937 
   28650    284.31633    215.03047   -3167.6822   -2744.7832    1522.8641    11906.647 
   28700    307.65879    215.74399   -3191.4664   -2733.8473    969.12416    11901.779 
   28750    302.15994    215.59681   -3186.5603   -2737.1203    1138.5456    11897.189 
   28800    300.92009     215.5706   -3185.6866   -2738.0908    1238.1914    11892.897 
   28850    299.92556    215.47705   -3182.5683   -2736.4517    1344.1202    11888.965 
   28900    304.68732    215.65128   -3188.3758   -2735.1765    1194.8761    11885.427 
   28950    305.66449    215.74849   -3191.6163   -2736.9635    1161.6948    11882.223 
   29000    302.43204    215.70285    -3190.095   -2740.2503    1329.2488    11879.355 
   29050    299.68768    215.60618   -3186.8726   -2741.1099    1487.7312     11876.89 
   29100    302.88918    215.62058   -3187.3527    -2736.828    1449.8306    11874.924 
   29150    292.94042    215.28869   -3176.2897   -2740.5631    1641.5278    11873.471 
   29200    303.29072    215.67766   -3189.2554   -2738.1334    1321.7478    11872.566 
   29250    312.45147    216.10068   -3203.3561   -2738.6082     1110.234    11872.106 
   29300    299.54105    215.67008   -3189.0026    -2743.458    1552.8592    11872.009 
   29350    314.14494    216.13163   -3204.3877   -2737.1209    1165.3445    11872.405 
   29400    305.61159    215.86712   -3195.5707   -2740.9966     1378.993      11873.2 
   29450    292.18458    215.37542   -3179.1807   -2744.5783    1671.9638    11874.483 
   29500    307.13244    215.84427   -3194.8089   -2737.9727     1151.421    11876.342 
   29550    306.33254    215.87144   -3195.7145   -2740.0681    1158.8776    11878.592 
   29600    314.52131    216.20016   -3206.6721   -2738.8455     857.8056     11881.19 
   29650    299.93721    215.69202   -3189.7341   -2743.6002    1262.7362    11884.044 
   29700    290.85275    215.31415   -3177.1382   -2744.5168    1644.2282    11887.323 
   29750    300.13922    215.64595   -3188.1984    -2741.764    1328.5729    11891.223 
   29800    314.61935    216.09312    -3203.104   -2735.1316    850.28361    11895.586 
   29850    292.31107    215.37286   -3179.0953   -2744.3048    1387.4386     11900.23 
   29900    296.95665     215.5325   -3184.4167   -2742.7162    1160.1813    11905.349 
   29950    303.91253    215.71377   -3190.4591   -2738.4123    930.66514    11910.874 
   30000    305.11297    215.78569   -3192.8563   -2739.0239    749.60747    11916.691 
   30050    310.13981    215.92497   -3197.4992   -2736.1897    423.18912    11922.682 
   30100    302.69507    215.67715   -3189.2383   -2739.0023    587.83015    11928.703 
   30150    288.22805    215.32727   -3177.5756   -2748.8582    955.34244    11934.847 
   30200    283.90101    215.18302   -3172.7674   -2750.4862    928.57696    11941.291 
   30250    298.99212    215.57471   -3185.8237   -2741.0956    460.08081    11948.007 
   30300    286.07529    215.16308   -3172.1026   -2746.5873    792.18512    11954.824 
   30350    297.74592    215.55693   -3185.2311   -2742.3566    387.79917    11961.808 
   30400    290.66403    215.25045    -3175.015   -2742.6743    537.79055    11968.843 
   30450    293.78888    215.37626   -3179.2085   -2742.2198    348.21926    11975.961 
   30500    303.53117    215.76754   -3192.2514   -2740.7718   -115.71109    11983.061 
   30550    293.02619    215.36332   -3178.7773   -2742.9231    165.18734    11989.953 
   30600    278.28152    214.91927   -3163.9755   -2750.0528    631.26877    11996.751 
   30650    286.94644    215.18996   -3172.9987   -2746.1876    324.28745    12003.658 
   30700    289.87636    215.18722   -3172.9072   -2741.7381    135.16108     12010.57 
   30750    294.87548    215.40226   -3180.0752   -2741.4703   -129.56762    12017.352 
   30800    287.83346    215.11221    -3170.407   -2742.2766    25.239234    12023.893 
   30850    281.91904    214.88129   -3162.7097   -2743.3765    161.84632    12030.258 
   30900    298.86782     215.4574   -3181.9132     -2737.37    -386.1168    12036.465 
   30950    299.06684    215.42471   -3180.8238   -2735.9845   -453.18307    12042.298 
   31000    281.86033    214.91393   -3163.7978   -2744.5519    -95.78684    12047.705 
   31050    281.72448    209.85022    -3161.674   -2742.6301   -136.84435    12052.829 
   31100    304.88498    210.56153   -3185.3842   -2731.8909    -819.0139    12057.622 
   31150    299.84406    210.29145   -3176.3816   -2730.3863   -678.59585    12061.795 
   31200    302.37792    210.35354   -3178.4514   -2728.6871   -738.68599    12065.346 
   31250    301.12255    210.28158   -3176.0527   -2728.1557   -592.94762    12068.251 
   31300    281.63387    209.73208   -3157.7361   -2738.8271   -67.736631    12070.608 
   31350    289.84105    209.90407    -3163.469   -2732.3524   -310.49498    12072.634 
   31400    288.90791    209.83932   -3161.3107   -2731.5821   -259.66817     12074.28 
   31450    305.29724     210.3805     -3179.35   -2725.2435   -672.87782    12075.502 
   31500    307.76438    210.31228   -3177.0759   -2719.2997   -683.90786    12076.136 
   31550    306.39788    210.20402   -3173.4673   -2717.7237   -650.13592    12076.133 
   31600      302.485    209.99395    -3166.465   -2716.5414   -491.72205      12075.5 
   31650    288.69971    209.57953    -3152.651   -2723.2321   -102.90788    12074.344 
   31700     286.4611    209.45739   -3148.5798   -2722.4906    101.83242     12072.84 
   31750    289.36161    209.48954   -3149.6513   -2719.2479    77.699157    12071.106 
   31800    313.91873    210.28194   -3176.0648   -2709.1345   -598.46401    12069.075 
   31850    286.51813    209.48528   -3149.5093   -2723.3353    176.71865     12066.53 
   31900    301.52773    209.90907   -3163.6355   -2715.1359    -126.2224    12063.738 
   31950    300.93343     209.8487   -3161.6234   -2714.0078    -50.22638    12060.626 
   32000    301.13735    209.80984   -3160.3281   -2712.4091    66.159654    12057.184 
   32050    299.53502    209.76231   -3158.7437    -2713.208    126.98234    12053.473 
   32100    317.22289    210.36912   -3178.9708   -2707.1258   -352.13828    12049.502 
   32150    313.14347    210.21885   -3173.9618   -2708.1846   -145.98723     12045.08 
   32200    300.80208    209.78208   -3159.4026   -2711.9823    357.80432    12040.291 
   32250    313.08956    210.15456   -3171.8187   -2706.1217    77.763087    12035.349 
   32300    298.59688    209.62608   -3154.2025   -2710.0623    561.76569    12030.177 
   32350    291.02652    209.37378   -3145.7927   -2712.9128    928.53831    12024.995 
   32400    303.87004    209.76054   -3158.6845   -2706.7009    604.23787    12019.986 
   32450    319.08919    210.14014   -3171.3378   -2696.7168    232.72818    12014.989 
   32500    309.62521    209.81478   -3160.4926   -2699.9486    583.00373    12009.859 
   32550    324.02586    210.22184   -3174.0613   -2692.0974    261.91813    12004.674 
   32600    315.91327    209.99608    -3166.536    -2696.639    543.62083    11999.358 
   32650     305.5848    209.66076   -3155.3588   -2700.8245    972.78809    11994.026 
   32700    324.11254    210.27119   -3175.7062   -2693.6134    522.91654    11988.855 
   32750    316.52137    210.05377   -3168.4591   -2697.6575    734.30762    11983.693 
   32800    318.82666      210.066   -3168.8668   -2694.6363    771.03268     11978.57 
   32850    324.75587    210.36847   -3178.9491   -2695.8994    651.86407    11973.532 
   32900    304.96531    209.84606   -3161.5354   -2707.9226    1216.9963    11968.584 
   32950    313.12306    210.11124   -3170.3747   -2704.6279    1067.5654    11963.924 
   33000    299.39079    209.61079   -3153.6931    -2708.372    1507.7469    11959.589 
   33050     319.1441    215.25862   -3175.2875   -2700.5848    986.07998    11955.692 
   33100    316.17314    215.16346   -3172.1154   -2701.8318    1073.7179    11952.063 
   33150    307.50681    214.84502   -3161.5006   -2704.1076    1438.6442    11948.729 
   33200    308.84734     214.8865   -3162.8834   -2703.4963    1427.3658    11945.864 
   33250     328.0656    215.53874   -3184.6245   -2696.6518    792.62783    11943.435 
   33300    314.05701    215.10758   -3170.2526   -2703.1166    1197.3066    11941.202 
   33350    298.57036    214.59109   -3153.0362   -2708.9354    1707.5205    11939.341 
   33400    297.68791    214.56068   -3152.0225   -2709.2343    1769.9292     11938.08 
   33450    301.36617    214.65985   -3155.3282   -2707.0689    1776.4179    11937.471 
   33500    305.63863    214.74699   -3158.2329   -2703.6186    1702.8203    11937.533 
   33550    307.80942    214.86693   -3162.2308   -2704.3877    1550.5844    11938.211 
   33600    306.68805    214.91002   -3163.6675   -2707.4922    1513.0694    11939.454 
   33650    316.66335    215.17514   -3172.5045   -2701.4918    1172.4469    11941.236 
   33700    325.95591    215.48056   -3182.6854   -2697.8507    841.71574    11943.379 
   33750      318.411    215.33312   -3177.7706   -2704.1584    956.99904    11945.729 
   33800    306.76819    215.01679   -3167.2265    -2710.932    1225.3949    11948.335 
   33850    294.31975    214.66273   -3155.4244   -2717.6461    1503.8102    11951.353 
   33900     294.8234    214.73584   -3157.8614   -2719.3339    1354.6883    11954.928 
   33950    323.62516    215.67501   -3189.1671   -2707.7992     424.8824    11958.931 
   34000    305.55427    215.11066   -3170.3554   -2715.8666    834.80833    11962.992 
   34050    299.25064    214.89524   -3163.1745   -2718.0619    956.15485    11967.235 
   34100     294.2517    214.76276   -3158.7588   -2721.0817    1043.4088    11971.755 
   34150    297.91084    214.94799   -3164.9329   -2721.8131    839.56541     11976.58 
   34200    301.98076     215.0062   -3166.8735      -2717.7    666.76911    11981.633 
   34250    299.82391    214.93857   -3164.6191   -2718.6538    670.64999    11986.827 
   34300    303.82125    215.12927   -3170.9758   -2719.0647    474.45438    11992.126 
   34350    296.88261    214.99232   -3166.4108   -2724.8204    587.25329    11997.471 
   34400    309.06206    215.30734   -3176.9113   -2717.2049    236.66113    12002.886 
   34450    315.16401    215.45512   -3181.8373   -2713.0547    -42.34126    12008.208 
   34500      302.533    215.08625   -3169.5417   -2719.5468    180.38416    12013.305 
   34550     288.5284    214.64545   -3154.8482   -2725.6841    515.78457    12018.275 
   34600    281.99835    214.41751   -3147.2503   -2727.7991    709.93722    12023.293 
   34650    292.76028    214.75363   -3158.4542   -2722.9955    350.07156    12028.451 
   34700    303.72738    215.16156   -3172.0521   -2720.2807   -95.472876    12033.568 
   34750    307.78849     215.3603   -3178.6766   -2720.8646   -281.01936    12038.415 
   34800    295.99861    214.87069   -3162.3564   -2722.0809    85.073758    12042.928 
   34850    291.84919    214.75176   -3158.3919   -2724.2883    155.15697    12047.226 
   34900    295.02615    214.92123    -3164.041    -2725.212   -48.228783    12051.367 
   34950    297.48442    215.05022   -3168.3407   -2725.8551   -176.51668    12055.275 
   35000    296.91712     214.9363   -3164.5435   -2722.9018   -69.050869    12058.867 
   35050    299.89592    220.14285   -3171.4284    -2725.356   -215.05288    12062.189 
   35100    296.36519    219.99409   -3166.4696   -2725.6489   -166.33186    12065.195 
   35150    283.42104    219.57716    -3152.572   -2731.0047    274.55544    12067.891 
   35200    280.87657    219.48308   -3149.4361   -2731.6535    379.07185    12070.502 
   35250    285.69046    219.69298   -3156.4327   -2731.4898    52.263709    12073.115 
   35300    302.21265    220.14923   -3171.6411   -2722.1227    -515.5779    12075.521 
   35350    283.46916    219.48415   -3149.4716   -2727.8327    56.231633    12077.501 
   35400    279.13903     219.3484   -3144.9467   -2729.7485    228.99357    12079.277 
   35450    291.21361    219.67438   -3155.8125   -2722.6543   -153.44498    12080.925 
   35500    285.93786    219.44385   -3148.1282   -2722.8173   -25.477248    12082.292 
   35550    289.90849    219.53373   -3151.1244   -2719.9075   -139.62495    12083.403 
   35600    299.46475    219.91467   -3163.8223   -2718.3912   -558.96658    12084.192 
   35650     289.5494    219.55273   -3151.7575   -2721.0747   -303.51636    12084.484 
   35700     287.9252    219.46905   -3148.9683   -2720.7013   -156.88148    12084.374 
   35750     290.4254    219.48291   -3149.4302   -2717.4445   -47.546692    12083.952 
   35800    283.70393    219.30881    -3143.627   -2721.6389     195.0494    12083.283 
   35850    295.36401     219.6615   -3155.3835   -2716.0519   -153.51604    12082.453 
   35900    304.42142    219.90036   -3163.3455   -2710.5417   -432.91178     12081.31 
   35950    293.54698    219.60268   -3153.4225   -2716.7936   -117.34173    12079.719 
   36000    303.35048    219.84265   -3161.4215   -2710.2107   -263.92455    12077.796 
   36050    297.20145    219.51758   -3150.5859   -2708.5213    14.427014    12075.506 
   36100    295.06757    219.49012   -3149.6705   -2710.7799    145.92337    12072.951 
   36150    297.32068    219.60083   -3153.3608   -2711.1189    73.701627     12070.23 
   36200     316.6557    220.20707   -3173.5691   -2702.5678   -433.10291    12067.256 
   36250    297.81845    219.60217   -3153.4056   -2710.4232    163.49543    12063.866 
   36300    291.21384    219.42615   -3147.5384   -2714.3799    391.06737     12060.27 
   36350    300.90126    219.62315   -3154.1052   -2706.5373    222.95924     12056.61 
   36400    289.97428    219.19792   -3139.9306   -2708.6159    629.87155    12052.863 
   36450    301.49065    219.55518   -3151.8394   -2703.3949    382.65268    12049.151 
   36500    309.51865    219.85794   -3161.9315    -2701.546    168.33567    12045.396 
   36550     310.7238    219.89952   -3163.3175   -2701.1394    219.45314    12041.488 
   36600    314.86151    219.94034   -3164.6781   -2696.3454    164.20065    12037.426 
   36650    291.46116    219.22966   -3140.9888   -2707.4624    819.59612    12033.232 
   36700    304.37942    219.65718   -3155.2394   -2702.4981    523.69334    12029.154 
   36750    300.73231    219.50818   -3150.2726   -2702.9561    731.04289    12025.142 
   36800      290.518    219.20432   -3140.1442   -2708.0206    1152.8171    12021.271 
   36850    307.98192    219.72786   -3157.5953   -2699.4955    729.09981    12017.715 
   36900    326.52907    220.34798    -3178.266   -2692.5787    149.17341    12014.278 
   36950    318.57347    220.05744   -3168.5813   -2694.7275    443.16219    12010.688 
   37000    303.10007     219.5364   -3151.2134    -2700.375    1016.0105    12007.083 
   37050    296.56822    219.21015   -3140.3383   -2699.2155    1315.5762    12003.736 
   37100    310.92062      219.565   -3152.1666   -2689.6958    1028.2744    12000.798 
   37150    313.40088    219.65978   -3155.3259   -2689.1659    1021.4955    11998.175 
   37200    302.91362     219.3884   -3146.2801    -2695.719    1412.4114     11995.84 
   37250    317.20234    219.84052   -3161.3508   -2689.5363    1046.1498    11993.954 
   37300    324.56398    220.14031   -3171.3438   -2688.5794    820.20034    11992.378 
   37350     317.5505    219.89895   -3163.2983    -2690.966    942.31675    11990.977 
   37400    304.82723    219.54476    -3151.492   -2698.0846    1198.3479    11989.852 
   37450    316.79061    219.89635   -3163.2117   -2692.0096    937.45793    11989.073 
   37500     291.9811    219.07286    -3135.762   -2701.4623     1666.099    11988.591 
   37550     315.1033    219.76253    -3158.751   -2690.0587    1013.9591     11988.67 
   37600    311.85336    219.66814   -3155.6048   -2691.7466    1079.9979      11989.1 
   37650     314.0562    219.70323   -3156.7744   -2689.6396    1068.7495    11989.835 
   37700    303.38847    219.38368   -3146.1225   -2694.8552    1392.4363     11990.91 
   37750    300.05878    219.38396    -3146.132   -2699.8173     1396.813    11992.466 
   37800    320.89294    220.02499   -3167.4997   -2690.1957    694.07573    11994.486 
   37850    317.75287    219.93712   -3164.5707   -2691.9374    757.64672    11996.683 
   37900    311.90092    219.80001   -3160.0002   -2696.0712    948.59696    11999.041 
   37950    308.51583    219.70717   -3156.9056   -2698.0117    979.07385    12001.654 
   38000     299.9207    219.57276   -3152.4254   -2706.3161    1123.2578    12004.568 
   38050     298.0586    219.46595    -3148.865   -2705.5254    1149.8496    12007.856 
   38100    308.59246    219.73798   -3157.9328   -2698.9249    789.75047    12011.518 
   38150    312.86069     219.9941     -3166.47   -2701.1134    505.85075    12015.363 
   38200    306.43328    219.73829   -3157.9429   -2702.1466     712.2938    12019.274 
   38250    307.70939    219.87529   -3162.5097   -2704.8153       613.07    12023.329 
   38300    292.69476    219.34092   -3144.6973    -2709.336    891.11649    12027.515 
   38350    301.28605    219.63358   -3154.4527   -2706.3125    538.71248    12031.902 
   38400    307.12309    219.77591   -3159.1969   -2702.3746    302.51809    12036.376 
   38450     296.1838    219.51895   -3150.6318   -2710.0809    535.73992    12040.816 
   38500    298.36559    219.61213   -3153.7375   -2709.9413    407.80629    12045.315 
   38550     299.3302    219.66801   -3155.6002   -2710.3692    223.45366    12049.808 
   38600     286.7257    219.38677   -3146.2256   -2719.7429    472.83823    12054.232 
   38650    295.51941    219.64602   -3154.8673   -2715.3046    105.03428     12058.67 
   38700    284.84694    219.29688   -3143.2292    -2719.541    289.88891    12062.984 
   38750    294.76035    219.67701   -3155.9003   -2717.4666   -34.964694    12067.209 
   38800    283.93449     219.3481   -3144.9368   -2722.6057     186.7171    12071.236 
   38850    283.20002    219.36088   -3145.3628   -2724.1242    107.79942    12075.128 
   38900    287.19347    219.62465    -3154.155   -2726.9765   -137.03545    12078.852 
   38950     285.4063    219.55898   -3151.9661   -2727.4459   -141.52008    12082.298 
   39000    294.34921    219.93659    -3164.553   -2726.7309   -487.27659     12085.44 
   39050    291.01485    224.82303   -3160.7677   -2727.9052    -476.0124    12088.129 
   39100     294.8543     224.8769   -3162.5632   -2723.9898   -588.36657    12090.337 
   39150    280.19979    224.40175   -3146.7249   -2729.9489   -131.89597    12092.046 
   39200    274.88075    224.23769   -3141.2564   -2732.3921     30.40598    12093.471 
   39250    287.19618    224.68256   -3156.0852   -2728.9027    -383.0325    12094.681 
   39300    279.00036    224.55818   -3151.9394   -2736.9475     -241.532    12095.499 
   39350     283.0622    224.67394   -3155.7981   -2734.7645   -398.71941    12095.963 
   39400    294.42623     225.0831   -3169.4366   -2731.4999   -759.03733    12095.991 
   39450    283.24948    224.73307   -3157.7691    -2736.457   -436.91688     12095.42 
   39500    277.98722    224.49506   -3149.8354   -2736.3504   -280.30337    12094.384 
   39550    283.03572    224.62231   -3154.0769   -2733.0827   -434.45078    12092.956 
   39600    279.56965    224.56885   -3152.2949   -2736.4562    -298.3726     12091.09 
   39650    278.49608    224.59191   -3153.0637   -2738.8218   -270.59694    12088.857 
   39700    290.33534    225.12704   -3170.9013   -2739.0494   -651.51963     12086.23 
   39750    271.01146    224.51542    -3150.514    -2747.405   -61.690231    12083.077 
   39800    272.87463     224.4977   -3149.9232   -2744.0428   -5.9237395    12079.635 
   39850    283.22981    224.85063   -3161.6878   -2740.4049   -308.11017    12075.952 
   39900    279.08592    224.62959   -3154.3198   -2739.2006   -156.06329    12071.894 
   39950    291.47456    225.01394   -3167.1313    -2733.585   -408.15885    12067.499 
   40000    278.23831    224.49225   -3149.7416   -2735.8832    96.356532    12062.702 
   40050    291.81138    219.90565   -3163.5217   -2729.4744    -256.7882    12057.672 
   40100    298.78029     220.1339   -3171.1299   -2726.7169    -387.9521    12052.274 
   40150    284.35842    219.78064   -3159.3547   -2736.3931    165.47277    12046.448 
   40200    298.22732    220.13004   -3171.0013   -2727.4108   -95.028281    12040.414 
   40250     299.9579    220.13731   -3171.2435   -2725.0789   -152.97699    12034.082 
   40300    295.48282    219.94196   -3164.7321   -2725.2238    90.425039     12027.42 
   40350    295.19682    220.00982   -3166.9939    -2727.911    228.77438     12020.53 
   40400    284.45781    219.66802   -3155.6007   -2732.4913    670.25722    12013.531 
   40450    284.98373    219.66506   -3155.5022   -2731.6105     814.7254    12006.605 
   40500    290.96344    219.85088   -3161.6961     -2728.91    707.91715    11999.837 
   40550    309.94198     220.4147   -3180.4901   -2719.4748    305.27375    11993.168 
   40600    290.80278    219.69264   -3156.4212   -2723.8741    962.71227    11986.473 
   40650    306.38968    220.26144   -3175.3812   -2719.6498    613.79693    11979.959 
   40700    303.78367    220.10625   -3170.2082    -2718.353    877.12816    11973.545 
   40750    294.72125    219.78498   -3159.4994   -2721.1239    1179.7675    11967.332 
   40800    313.50185    220.39631   -3179.8771   -2713.5668    694.96057    11961.427 
   40850    303.53893    220.01385   -3167.1284   -2715.6373    1079.7622    11955.687 
   40900    322.31056    220.67042   -3189.0139   -2709.6014    622.93347    11950.193 
   40950    298.19866    219.96874   -3165.6248   -2722.0769    1302.3389    11944.833 
   41000    298.73494    219.92593   -3164.1978   -2719.8522    1339.8463     11939.85 
   41050    319.15601    215.47399   -3182.4664    -2707.746    889.80906    11935.282 
   41100    303.12561    215.01182   -3167.0608   -2716.1844    1371.1895    11930.968 
   41150    308.59653    215.19627    -3173.209    -2714.195    1249.5399    11927.056 
   41200    310.16591    215.19095   -3173.0315   -2711.6833    1298.0906    11923.528 
   41250    311.91224    215.31123   -3177.0409   -2713.0951    1308.2091    11920.405 
   41300    306.39663    215.08296   -3169.4321   -2713.6903    1547.4528    11917.713 
   41350    306.05504    215.02887    -3167.629   -2712.3954    1581.2174    11915.556 
   41400    314.94856    215.26034   -3175.3446   -2706.8825    1341.7689    11913.937 
   41450    297.50382     214.7101   -3157.0034    -2714.489    1859.6291    11912.791 
   41500      308.666    215.19273   -3173.0911   -2713.9738    1453.8749     11912.32 
   41550    321.44444    215.57919    -3185.973   -2707.8488    1082.7758    11912.361 
   41600     310.4158    215.23312   -3174.4374   -2712.7175    1424.3207    11912.737 
   41650    321.52767    215.65361   -3188.4537   -2710.2057     1098.832    11913.548 
   41700    313.54869    215.44886   -3181.6287   -2715.2487    1265.3291    11914.709 
   41750    285.17677    214.47498   -3149.1659    -2724.987    2059.7728    11916.306 
   41800    296.10841    214.90538   -3163.5125   -2723.0737    1692.1704    11918.678 
   41850     318.9381    215.52321   -3184.1069   -2709.7106    1050.6703    11921.678 
   41900    305.30756    215.19624   -3173.2079    -2719.086    1352.9836    11925.034 
   41950    309.71503    215.31755   -3177.2518   -2716.5742    1159.1507    11928.829 
   42000    308.76382    215.24845   -3174.9482   -2715.6854    1150.5198    11933.006 
   42050    309.76901     215.3059   -3176.8633   -2716.1054    1014.9251    11937.536 
   42100    306.13278     215.1921   -3173.0699   -2717.7206    1040.1692    11942.367 
   42150    306.03103    215.14491   -3171.4971   -2716.2991    1009.9928    11947.495 
   42200    304.27982    215.09258   -3169.7525   -2717.1593    975.59919    11952.923 
   42250    316.29483    215.47342   -3182.4474   -2711.9828    581.94225    11958.606 
   42300    301.72472    215.04423   -3168.1411   -2719.3485     994.4839    11964.385 
   42350     284.2372    214.61367   -3153.7891   -2731.0078    1401.2212    11970.462 
   42400    301.69874    215.12793   -3170.9311   -2722.1771    761.40148    11977.011 
   42450    308.03371    215.36832   -3178.9442   -2720.7674    408.69952    11983.755 
   42500    299.39394    215.07447    -3169.149   -2723.8232     512.5389    11990.522 
   42550    308.67681    215.29101    -3176.367   -2717.2336    263.37373    11997.308 
   42600    305.62627    215.28737   -3176.2457   -2721.6498    318.30744    12004.026 
   42650    294.74853    214.97449   -3165.8162   -2727.4001    584.75023    12010.713 
   42700    293.69115    214.88864   -3162.9546   -2726.1113    609.51769    12017.481 
   42750    294.53801    214.95323   -3165.1078   -2727.0048     528.0712    12024.338 
   42800     291.7201    214.85624   -3161.8746   -2727.9631    486.06867    12031.259 
   42850    302.51043    215.18081   -3172.6936   -2722.7322    1.3313098    12038.208 
   42900    315.01619    215.49709   -3183.2365   -2714.6738   -444.63085    12044.931 
   42950    297.67691    215.04882    -3168.294   -2725.5222   -124.25296    12051.227 
   43000    293.97213    214.95825    -3165.275   -2728.0138   -138.09519    12057.208 
   43050    290.26637    214.87066   -3162.3553   -2730.6061   -152.92779      12062.9 
   43100    295.59947    215.05887   -3168.6288    -2728.947   -354.98254    12068.261 
   43150    276.02775    214.46625   -3148.8749   -2738.3045    102.66975    12073.243 
   43200    279.04634    214.52138   -3150.7125   -2735.6522   -22.874171    12078.022 
   43250    295.21891    215.07639   -3169.2129   -2730.0971   -550.83405    12082.545 
   43300    290.95479    214.91771   -3163.9236   -2731.1504   -497.77077    12086.581 
   43350    294.56542    214.98257   -3166.0858   -2727.9421   -626.95956    12090.102 
   43400    288.62932    214.78054   -3159.3513   -2730.0371   -462.94911    12093.073 
   43450    292.45087    214.91311   -3163.7702   -2728.7717   -561.84793    12095.534 
   43500    290.24786    214.71376   -3157.1253   -2725.4036   -452.60823    12097.478 
   43550    285.92739    214.53654   -3151.2179   -2725.9225   -230.78135    12098.915 
   43600    288.78871    214.68553   -3156.1845   -2726.6332   -320.27707    12099.967 
   43650    301.53718    215.08926   -3169.6421   -2721.1284   -740.25158    12100.583 
   43700    284.91962    214.56616   -3152.2055   -2728.4092   -254.36294    12100.592 
   43750     287.5622    214.67245   -3155.7483   -2728.0213    -316.9686    12100.187 
   43800    294.89936    214.93821    -3164.607   -2725.9666   -653.83789    12099.353 
   43850    293.56554    214.83916   -3161.3053   -2724.6488   -615.44835    12097.926 
   43900       291.58    214.73752   -3157.9174   -2724.2142   -448.84103    12095.922 
   43950    282.61406    214.43856    -3147.952    -2727.585   -89.983511    12093.443 
   44000     294.6524    214.83862   -3161.2875   -2723.0144   -361.65876    12090.629 
[...]
   89400    293.37624    209.81755    -3160.585   -2724.2101    1231.7067    11955.343 
   89450    296.53125    209.87121   -3162.3736   -2721.3058    1242.0955    11952.532 
   89500    309.50653    210.19625   -3173.2085   -2712.8409    1008.6411    11950.079 
   89550     302.5697     210.0858   -3169.5268   -2719.4773    1233.5849    11947.896 
   89600    290.44815    209.68802   -3156.2673   -2724.2476    1581.6015    11946.119 
   89650    320.05745    210.55432    -3185.144   -2709.0828    797.29271    11944.829 
   89700    315.44451    210.47558   -3182.5193   -2713.3195    899.98917    11943.725 
   89750    320.70922    210.66958   -3188.9861   -2711.9554    776.71254    11942.791 
   89800    307.36967    210.24098   -3174.6995   -2717.5104    1179.3582    11942.014 
   89850    315.30915     210.4876   -3182.9199   -2713.9215    970.22522    11941.561 
   89900    313.96273    210.52097   -3184.0324   -2717.0366    962.20987    11941.355 
   89950    300.46186    210.09674   -3169.8914   -2722.9771    1309.1321    11941.418 
   90000    320.34581    210.74997   -3191.6658   -2715.1756    696.38713    11941.835 
   90050    309.94975     215.3357   -3177.8565   -2716.8298    997.19814    11942.397 
   90100    302.10831    215.11996   -3170.6654   -2721.3022    1227.1723    11943.208 
   90150    295.75334    214.99935   -3166.6449   -2726.7343    1376.3774    11944.415 
   90200    302.82538    215.15039   -3171.6798   -2721.2499    1220.9456    11946.079 
   90250    304.22863    215.19166   -3173.0555   -2720.5385    1116.0833    11948.136 
   90300     312.8506    215.42185   -3180.7282   -2715.3867    801.97159    11950.507 
   90350    309.31204    215.36706    -3178.902   -2718.8238    810.78778    11953.044 
   90400    304.40156    215.25409   -3175.1363   -2722.3621    868.13927    11955.749 
   90450    302.87192    215.20293   -3173.4311   -2722.9321    865.59405     11958.67 
   90500    303.15975    215.28961   -3176.3203   -2725.3932    914.03766    11961.803 
   90550    301.75348    215.20058   -3173.3527   -2724.5173    971.02757    11965.168 
   90600    295.11219    215.03524   -3167.8413   -2728.8843    1050.2135    11968.788 
   90650    309.95277    215.46706   -3182.2355   -2721.2042    526.59492    11972.672 
   90700    300.18711    215.16762    -3172.254   -2725.7485    657.88908    11976.626 
   90750    290.91521    214.88824   -3162.9415   -2730.2272    844.92517    11980.696 
   90800    298.86099    215.15135   -3171.7118   -2727.1787    624.20718    11984.943 
   90850    291.40258    214.94144   -3164.7145   -2731.2753    825.84539     11989.31 
   90900    297.25121    215.14083   -3171.3611   -2729.2225    540.71662    11993.863 
   90950     295.4647    215.04081   -3168.0271   -2728.5458    470.03887    11998.482 
   91000     309.7366    215.53848   -3184.6159   -2723.9061    21.975528     12003.07 
   91050    296.61304    215.14859   -3171.6198   -2730.4304      249.856    12007.465 
   91100    304.93471    215.39926   -3179.9752   -2726.4079   -87.358955    12011.705 
   91150    279.56968    214.73486   -3157.8286   -2741.9899    470.79611    12015.708 
   91200    293.03161    215.12555   -3170.8515   -2734.9892    81.017059    12019.661 
   91250    299.39686    215.37761   -3179.2537   -2733.9235   -156.23212    12023.432 
   91300    293.81987    215.17745   -3172.5818    -2735.547   -67.788529    12026.895 
   91350    293.58978    215.24873   -3174.9578   -2738.2653   -127.51677    12030.064 
   91400    279.29776     214.8393   -3161.3101   -2745.8758    222.15865    12032.944 
   91450    294.10527     215.2539   -3175.1299   -2737.6706   -203.72531    12035.667 
   91500    285.17796    215.00175   -3166.7251   -2742.5445   -37.743323    12038.088 
   91550    287.43122    215.12776   -3170.9254   -2743.3932   -137.59188    12040.224 
   91600    298.07304    215.46558    -3182.186   -2738.8249   -498.04416    12042.032 
   91650    280.71631    214.90944   -3163.6479   -2746.1037   -71.776705    12043.372 
   91700    279.03051    214.92956   -3164.3188   -2749.2821   -153.61995    12044.405 
   91750     297.0526    215.56712   -3185.5706   -2743.7274   -801.74046    12045.091 
   91800     282.3019    215.07979   -3169.3262   -2749.4236   -424.96738     12045.17 
   91850    282.27881     215.1393   -3171.3099   -2751.4416   -362.76554    12044.754 
   91900    278.93973     215.0461   -3168.2033   -2753.3016   -210.56918     12043.93 
   91950    280.88212    215.17407   -3172.4692   -2754.6783   -309.07639    12042.747 
   92000     285.4061    215.39395   -3179.7982   -2755.2783   -505.47936    12041.155 
   92050    276.95429    220.25668   -3175.2228   -2763.2743    -357.2135    12039.081 
   92100    276.31642    220.26424   -3175.4747   -2764.4749   -312.41873    12036.571 
   92150    262.32531    219.85128   -3161.7095   -2771.5205     41.67474    12033.708 
   92200      289.065    220.72835   -3190.9451   -2760.9828   -699.55116    12030.571 
   92250    278.43777    220.29063   -3176.3545   -2762.1994   -326.07605    12026.907 
   92300    289.24142    220.62518    -3187.506   -2757.2813   -612.08323    12022.796 
   92350    285.97304    220.59027   -3186.3423   -2760.9791   -439.92207    12018.154 
   92400    270.16043    220.17556   -3172.5187   -2770.6755     25.25934    12013.068 
   92450    278.73076    220.51398   -3183.7992   -2769.2083   -148.03775    12007.729 
   92500      262.583    220.09697   -3169.8989   -2779.3266     349.5932    12002.134 
   92550    273.03432    220.44809   -3181.6029    -2775.485    51.077419     11996.46 
   92600    271.00059    220.38774   -3179.5912   -2776.4984     150.3522    11990.618 
   92650    274.21144    220.58557   -3186.1856   -2778.3168    76.086232    11984.622 
   92700    271.48112    220.47144   -3182.3813   -2778.5737    193.71582    11978.454 
   92750    269.34608    220.47041    -3182.347   -2781.7151    250.60108    11972.159 
   92800    283.07297    220.91991   -3197.3302   -2776.2806   -135.16622    11965.759 
   92850     284.6829    220.98183   -3199.3944   -2775.9502   -51.044373    11959.075 
   92900    265.24651    220.36018   -3178.6725   -2784.1384    604.86532    11952.183 
   92950    276.23316    220.63285   -3187.7617   -2776.8858    354.94759     11945.35 
   93000    278.40225    220.71166   -3190.3885   -2776.2863    386.72511    11938.499 
   93050    282.84337    215.85816    -3195.272    -2774.564    320.97923    11931.604 
   93100    295.47995    216.30113   -3210.0377   -2770.5337   -58.394895     11924.62 
   93150     299.8706     216.4584   -3215.2799   -2769.2451   -98.752061    11917.368 
   93200    281.93331    215.87609   -3195.8697   -2776.5153    606.13777    11909.839 
   93250    281.01265    215.79682   -3193.2274   -2775.2423    761.11139    11902.366 
   93300     302.9473    216.41319   -3213.7729   -2763.1618     262.6661    11895.014 
   93350    279.00232    215.66697    -3188.899   -2773.9042    1089.0019    11887.628 
   93400     298.7789    216.35748   -3211.9161   -2767.5052     666.1698    11880.469 
   93450    289.02212    215.94196   -3198.0653   -2768.1668    1088.1371    11873.471 
   93500     280.0088    215.70582   -3190.1941   -2773.7022     1385.231    11866.787 
   93550    288.04303     215.9099   -3196.9967   -2768.5545    1247.8918     11860.56 
   93600    295.62435    216.16262   -3205.4208    -2765.702    1171.2504     11854.73 
   93650    301.26766     216.2638   -3208.7933   -2760.6805    1211.9722    11849.256 
   93700    303.03088    216.25417   -3208.4723   -2757.7369    1202.5261    11844.166 
   93750    294.06343    215.88707   -3196.2358   -2758.8387    1576.5894    11839.466 
   93800     292.0198    215.75052   -3191.6841   -2757.3268    1748.5166    11835.319 
   93850    306.86283    216.24081   -3208.0269   -2751.5916    1432.3028    11831.791 
   93900    285.44424    215.54419   -3184.8065   -2760.2298     2190.771    11828.809 
   93950    302.63791    215.96523    -3198.841     -2748.69    1790.0726    11826.645 
   94000    309.66959    216.19729   -3206.5762   -2745.9662     1572.637    11825.163 
   94050    310.53259    211.16799   -3205.5996   -2743.7059    1638.6147    11824.246 
   94100    312.48035    211.17959   -3205.9862   -2741.1954    1581.3619    11823.901 
   94150    307.54079    211.07828   -3202.6094   -2745.1657    1687.5728    11824.093 
   94200    295.64853    210.63343    -3187.781   -2748.0262    2024.0059    11824.907 
   94250    314.07265    211.23217   -3207.7388   -2740.5796    1540.6708    11826.453 
   94300    313.51404    211.20655   -3206.8849   -2740.5566    1583.0923    11828.559 
   94350     316.4383    211.06616   -3202.2054   -2731.5274    1553.2745    11831.202 
   94400    307.46686    210.78982   -3192.9939   -2735.6602    1742.9219    11834.385 
   94450    304.06222    210.73558    -3191.186   -2738.9165    1871.6856    11838.195 
   94500    313.56139     210.9148   -3197.1599   -2730.7611    1664.9368    11842.709 
   94550    318.66953    211.14779   -3204.9264   -2730.9296    1459.2674    11847.807 
   94600    297.80726    210.52038   -3184.0126   -2741.0468    1940.5632    11853.445 
   94650    326.97529    211.35635   -3211.8783   -2725.5274    1064.7656     11859.74 
   94700    308.14554    210.70909    -3190.303   -2731.9599    1486.8245    11866.412 
   94750    317.49482    210.98858   -3199.6192   -2727.3697    1163.4591    11873.549 
   94800    299.70433    210.49033   -3183.0111   -2737.2236     1557.516    11881.079 
   94850    293.15773    210.26016   -3175.3386   -2739.2887    1707.7778     11889.13 
   94900    304.44577    210.56005    -3185.335    -2732.495    1228.6798    11897.787 
   94950    308.12794    210.59673   -3186.5578   -2728.2409    1014.4383    11906.845 
   95000    305.72232    210.59043   -3186.3477    -2731.609    963.60577    11916.182 
   95050    312.46343    210.75589    -3191.863   -2727.0974    719.02892    11925.761 
   95100    301.11438    210.42364   -3180.7879    -2732.903    988.75037    11935.474 
   95150     298.5019    210.35839   -3178.6128   -2734.6139    938.42878     11945.43 
   95200    299.53869    210.48103   -3182.7009   -2737.1598    669.38517    11955.617 
   95250    313.00898    210.86177   -3195.3922   -2729.8151    145.49763    11965.888 
   95300      300.388    210.42505   -3180.8351   -2734.0307    330.98751    11976.032 
   95350    309.27748    210.69829    -3189.943   -2729.9162   -9.7524576     11986.05 
   95400    305.58404    210.59708   -3186.5695   -2732.0364    39.730816    11995.824 
   95450    298.34375    210.42599   -3180.8664   -2737.1027    177.89543    12005.369 
   95500    285.31733    210.01865   -3167.2883   -2742.9004    376.59435     12014.77 
   95550    304.07888    210.54404   -3184.8013    -2732.507   -261.80983    12024.066 
   95600    298.59323    210.29727   -3176.5755   -2732.4407   -208.32008    12033.012 
   95650    298.35899    210.25505   -3175.1685   -2731.3821   -262.17585    12041.575 
   95700    295.83951    210.10865   -3170.2885   -2730.2496   -228.97984    12049.747 
   95750    290.79564    209.95478   -3165.1595    -2732.623   -119.49552    12057.527 
   95800    289.84442    209.88015   -3162.6718   -2731.5502   -141.99702    12064.987 
   95850    295.05691    210.09092   -3169.6975   -2730.8227   -417.62343    12072.097 
   95900     303.5996    210.39278   -3179.7594   -2728.1781   -761.22482    12078.717 
   95950    289.59111    210.05631   -3168.5438   -2737.7989   -494.31966    12084.693 
   96000    285.55817    209.81505   -3160.5018   -2735.7557   -470.64275    12090.137 
   96050    299.98163     210.2658   -3175.5267   -2729.3268    -964.9898    12095.038 
   96100    295.59001    210.15252   -3171.7505   -2732.0828   -888.32054    12099.187 
   96150     293.3316    210.05048   -3168.3493   -2732.0408   -807.38559    12102.603 
   96200    289.30586    209.84552   -3161.5172   -2731.1966    -661.4521    12105.327 
   96250    293.27431    210.02333   -3167.4444   -2731.2211   -786.49576    12107.418 
   96300    301.20022    210.24514   -3174.8379   -2726.8254   -979.30753    12108.811 
   96350    292.95631    209.91842   -3163.9473    -2728.197   -681.96318    12109.439 
   96400    295.01613    209.95296   -3165.0988   -2726.2847   -665.17321    12109.413 
   96450    288.58725     209.7022   -3156.7401   -2727.4884   -472.70637    12108.785 
   96500     286.8964    209.64121   -3154.7071   -2727.9705   -481.89281    12107.636 
   96550    291.15507     209.8509   -3161.6966   -2728.6255   -627.42708    12105.951 
   96600    301.45456    210.08632    -3169.544   -2721.1532   -827.15346    12103.664 
   96650    295.71017    209.95069   -3165.0228   -2725.1764   -614.10098    12100.692 
   96700    295.25642    209.88919    -3162.973   -2723.8014   -509.40582    12097.112 
   96750    293.45271    209.79215   -3159.7383   -2723.2497   -406.81648    12092.998 
   96800    289.05538    209.62507   -3154.1689    -2724.221    -263.3087    12088.409 
   96850    293.71508    209.79364   -3159.7879    -2722.909   -308.13302    12083.406 
   96900    292.55702    209.73563   -3157.8542   -2722.6978   -213.19828    12077.989 
   96950    306.75722    210.21101   -3173.7002   -2717.4221    -535.6019    12072.168 
   97000    298.70335    210.02249   -3167.4164   -2723.1178   -199.37243    12065.831 
   97050    296.80366    215.00349   -3166.7829   -2725.3099    6.0932483     12059.12 
   97100    294.79116    214.84444   -3161.4813   -2723.0018    264.82839    12052.184 
   97150    288.15413    214.55534   -3151.8447   -2723.2373    608.30209    12045.151 
   97200    292.53524     214.6347   -3154.4899   -2719.3659    644.52416    12038.178 
   97250    303.40949    214.99762   -3166.5873   -2715.2886    420.55028    12031.281 
   97300    308.98469    215.10712   -3170.2373   -2710.6459    265.53039    12024.357 
   97350    311.08453    215.14093   -3171.3643   -2708.6496    251.80578    12017.337 
   97400    314.73405    215.27176   -3175.7252   -2707.5822    263.09571    12010.199 
   97450    307.40865    215.06385    -3168.795    -2711.548    578.68249    12002.949 
   97500    296.01107     214.6426   -3154.7534   -2714.4594    1024.4646    11995.772 
   97550    312.80098    215.08062   -3169.3539   -2704.0862    653.46465    11988.841 
   97600    311.43482    215.02483   -3167.4945   -2704.2588    765.33211    11982.023 
   97650    305.63052    214.85478   -3161.8259   -2707.2236    1041.9362    11975.369 
   97700    311.94801    214.94117   -3164.7057   -2700.7067    1072.7497    11968.993 
   97750    301.88312    214.59076   -3153.0255   -2703.9972    1442.1378    11962.958 
   97800    315.85296     214.9952   -3166.5067   -2696.6993    1108.8908    11957.389 
   97850    330.94156     215.4368   -3181.2267   -2688.9762    741.34297    11952.126 
   97900    313.85356    214.85475   -3161.8251   -2694.9917    1345.9396    11947.041 
   97950    313.53105    214.86614   -3162.2046    -2695.851     1452.896    11942.352 
   98000     313.8215    214.88962   -3162.9874   -2696.2017    1505.6614    11938.164 
   98050    316.36015    214.88286    -3162.762   -2692.2003    1599.1434    11934.505 
   98100    319.68049    215.01657    -3167.219   -2691.7185    1539.2823    11931.409 
   98150    318.92941    214.95818   -3165.2728   -2690.8895    1511.1993    11928.852 
   98200    319.41555    214.94887   -3164.9624   -2689.8559    1556.0808    11926.827 
   98250    321.47108    215.01431   -3167.1437   -2688.9798    1617.2003    11925.347 
   98300    319.20983    214.81749   -3160.5829   -2685.7825    1785.9202    11924.451 
   98350    315.90409    214.71482   -3157.1607   -2687.2774    1935.3078    11924.217 
   98400     322.9775    214.91765   -3163.9216    -2683.517    1685.4491    11924.702 
   98450    329.05416    215.12038   -3170.6794   -2681.2363    1408.6114    11925.796 
   98500    315.62259    214.63929   -3154.6431   -2685.1784    1869.2235    11927.399 
   98550    325.47763    214.94679   -3164.8931   -2680.7698    1771.5001    11929.672 
   98600    327.92615    214.99176   -3166.3919   -2678.6266    1747.9788    11932.601 
   98650    328.63641    214.97565   -3165.8549   -2677.0331    1597.1154    11936.173 
   98700    311.56129    214.36239   -3145.4131   -2681.9893    1997.2645    11940.327 
   98750    312.40489    214.50152   -3150.0508   -2685.3722    1856.1793    11945.209 
   98800    328.41463    214.97326   -3165.7752   -2677.2833     1363.329     11950.79 
   98850    329.40991    214.92755   -3164.2518   -2674.2795    1371.4095    11956.843 
   98900    332.47539    215.07716   -3169.2388   -2674.7068    1149.5633    11963.322 
   98950    326.17473    214.77767   -3159.2556   -2674.0954    1256.3989    11970.143 
   99000    321.47518    214.64058   -3154.6861   -2676.5161    1360.6781    11977.346 
   99050    318.24876      219.461   -3148.6999    -2675.329    1481.1991    11985.008 
   99100    312.02128    219.25478   -3141.8259   -2677.7179    1655.1105    11993.192 
   99150    299.22727    218.86971   -3128.9903   -2683.9124    1824.9637    12002.004 
   99200    310.02339    219.30869   -3143.6229   -2682.4866    1253.7585    12011.495 
   99250    324.13353    219.66316   -3155.4388   -2673.3147    820.57712    12021.399 
   99300    303.78937    218.94511   -3131.5038   -2679.6401    1370.0892    12031.527 
   99350    313.03978    219.21915   -3140.6382   -2675.0153    944.13585    12042.064 
   99400    310.45303    219.08471   -3136.1569   -2674.3815    787.16939    12052.878 
   99450    322.21272    219.59452   -3153.1506   -2673.8836    301.57931    12063.808 
   99500    305.10254    219.09475   -3136.4916   -2682.6747    628.76327    12074.708 
   99550    314.49493    219.46973   -3148.9911   -2681.2038    194.90826    12085.646 
   99600    301.09925    218.95405   -3131.8018   -2683.9395    460.51031    12096.481 
   99650    300.08005    218.91445   -3130.4817   -2684.1353    367.69842     12107.29 
   99700    307.83866    219.07062   -3135.6873   -2677.8006    84.964221    12118.042 
   99750    310.59626    219.28647   -3142.8825   -2680.8941   -143.61864    12128.578 
   99800    306.81717    219.24351   -3141.4503    -2685.083   -266.19646    12138.795 
   99850    309.76618     219.4607   -3148.6901   -2687.9364   -575.29785    12148.584 
   99900    298.59309    219.05682   -3135.2273   -2691.0927    -394.0599    12157.831 
   99950    300.22366    219.12623   -3137.5411   -2690.9812   -446.08983    12166.589 
  100000    293.10069     218.8666   -3128.8867   -2692.9216   -317.35192    12174.882 
Loop time of 27.3219 on 1 procs for 100000 steps with 500 atoms

Performance: 316.230 ns/day, 0.076 hours/ns, 3660.065 timesteps/s
99.8% CPU use with 1 MPI tasks x 1 OpenMP threads

MPI task timing breakdown:
Section |  min time  |  avg time  |  max time  |%varavg| %total
---------------------------------------------------------------
Pair    | 22.154     | 22.154     | 22.154     |   0.0 | 81.08
Bond    | 0.0072422  | 0.0072422  | 0.0072422  |   0.0 |  0.03
Neigh   | 0.50658    | 0.50658    | 0.50658    |   0.0 |  1.85
Comm    | 0.77381    | 0.77381    | 0.77381    |   0.0 |  2.83
Output  | 0.018155   | 0.018155   | 0.018155   |   0.0 |  0.07
Modify  | 2.7461     | 2.7461     | 2.7461     |   0.0 | 10.05
Other   |            | 1.116      |            |       |  4.09

Nlocal:    500 ave 500 max 500 min
Histogram: 1 0 0 0 0 0 0 0 0 0
Nghost:    1568 ave 1568 max 1568 min
Histogram: 1 0 0 0 0 0 0 0 0 0
Neighs:    14465 ave 14465 max 14465 min
Histogram: 1 0 0 0 0 0 0 0 0 0

Total # of neighbors = 14465
Ave neighs/atom = 28.93
Ave special neighs/atom = 0
Neighbor list builds = 607
Dangerous builds = 0

write_data      ${walker}/final_restart_file
write_data      7/final_restart_file

quit
