LAMMPS (19 May 2017)
Processor partition = 15
  using 1 OpenMP thread(s) per MPI task
# gREM variables
variable        lambda world 1000 1005 1010 1015 1020 1025 1030 1035 1040 1045 1050 1055 1060 1065 1070 1075
variable        walker world 0 1 2 3 4 5 6 7 8 9 10 11 12 13 14 15
variable        replica world 2 3 4 6 13 0 1 7 11 14 9 8 5 10 12 15

variable        T0 equal 300.0
variable        press equal 0.0

units           real
atom_style      full
pair_style      lj/cut 5.0

# LJ particles
read_data       ${walker}/restart_file
read_data       15/restart_file
  orthogonal box = (0.906501 0.906501 0.906501) to (24.0935 24.0935 24.0935)
  1 by 1 by 1 MPI processor grid
  reading atoms ...
  500 atoms
  reading velocities ...
  500 velocities
  0 = max # of 1-2 neighbors
  0 = max # of 1-3 neighbors
  0 = max # of 1-4 neighbors
  1 = max # of special neighbors

#dump            dump all xyz 1000 ${walker}/dump.xyz

fix             fxnpt all npt temp ${T0} ${T0} 1000.0 iso ${press} ${press} 10000.0
fix             fxnpt all npt temp 300 ${T0} 1000.0 iso ${press} ${press} 10000.0
fix             fxnpt all npt temp 300 300 1000.0 iso ${press} ${press} 10000.0
fix             fxnpt all npt temp 300 300 1000.0 iso 0 ${press} 10000.0
fix             fxnpt all npt temp 300 300 1000.0 iso 0 0 10000.0
fix             fxgREM all grem ${lambda} -.03 -30000 fxnpt
fix             fxgREM all grem 1075 -.03 -30000 fxnpt
thermo_modify   press fxgREM_press

thermo          50
thermo_style    custom step temp f_fxgREM pe etotal press vol
WARNING: New thermo_style command, previous thermo_modify settings will be lost (../output.cpp:705)
timestep        1.0

temper/grem     100000 1000 ${lambda} fxgREM fxnpt 10294 98392 ${walker}
temper/grem     100000 1000 1075 fxgREM fxnpt 10294 98392 ${walker}
temper/grem     100000 1000 1075 fxgREM fxnpt 10294 98392 15
Neighbor list info ...
  update every 1 steps, delay 10 steps, check yes
  max neighbors/atom: 2000, page size: 100000
  master list distance cutoff = 7
  ghost atom cutoff = 7
  binsize = 3.5, bins = 7 7 7
  1 neighbor lists, perpetual/occasional/extra = 1 0 0
  (1) pair lj/cut, perpetual
      attributes: half, newton on
      pair build: half/bin/newton
      stencil: half/bin/3d/newton
      bin: standard
Per MPI rank memory allocation (min/avg/max) = 5.721 | 5.721 | 5.721 Mbytes
Step Temp f_fxgREM PotEng TotEng Press Volume 
       0    308.68479    265.55428   -3018.4761   -2559.3308    186.21556    12466.185 
      50     299.3601    265.19861   -3006.6203   -2561.3448    564.85527    12466.211 
     100    306.36352    265.46821   -3015.6069   -2559.9143    304.97462     12466.41 
     150    293.14541    264.96022   -2998.6739   -2562.6423    668.68545    12466.725 
     200    300.58518    265.18355   -3006.1185   -2559.0208    402.52473    12467.274 
     250    313.75426    265.66881   -3022.2935   -2555.6079    -79.22214    12467.942 
     300    301.81851    265.07438   -3002.4792    -2553.547    363.17966    12468.519 
     350    299.85499    265.00085   -3000.0283   -2554.0168    424.05374    12469.169 
     400    312.18196    265.59008   -3019.6693   -2555.3223   -36.492696    12469.921 
     450    308.08626    265.42626   -3014.2087   -2555.9538    14.417197    12470.605 
     500    332.45181    266.32427   -3044.1423   -2549.6454   -761.32063    12471.108 
     550    308.56592    265.49702   -3016.5673   -2557.5989    75.823095     12471.17 
     600    290.74984    264.89749   -2996.5828   -2564.1145    745.97802    12471.144 
     650    280.99147    264.57516   -2985.8387   -2567.8852     1059.703    12471.425 
     700      288.219    264.86384   -2995.4613   -2566.7573    822.44006    12472.185 
     750    288.71046    264.83806   -2994.6021   -2565.1671    830.66623    12473.333 
     800    288.56822    264.86074    -2995.358   -2566.1346    759.26386    12474.844 
     850    311.23085    265.76216   -3025.4054   -2562.4731   -116.73928    12476.635 
     900    304.32911    265.40026   -3013.3419   -2560.6754    60.609576    12478.332 
     950    293.38969    265.05025   -3001.6749   -2565.2799    404.07704     12479.96 
    1000    302.67162    265.37899   -3012.6329   -2562.4318    95.169825    12481.684 
    1050    289.05255    264.84472   -2994.8238   -2564.8801    599.08454    12483.407 
    1100    282.75281    264.52319   -2984.1062   -2563.5328    841.83699    12485.345 
    1150      298.471    265.15356   -3005.1186   -2561.1656    256.92679    12487.619 
    1200    280.69446    264.51887   -2983.9622   -2566.4505    718.06187    12489.998 
    1250    291.73445    264.88639    -2996.213   -2562.2801    329.41929     12492.64 
    1300    286.87606    264.69653   -2989.8844    -2563.178    412.07945    12495.415 
    1350    292.46727    264.93224   -2997.7415   -2562.7186    108.76752    12498.298 
    1400    305.42571     265.4406   -3014.6866    -2560.389   -403.67763    12501.134 
    1450    298.02987    265.06786   -3002.2619    -2558.965   -54.239693     12503.68 
    1500    297.67954    265.04796   -3001.5986   -2558.8228    -18.38837    12506.077 
    1550     301.7525    265.16635   -3005.5451   -2556.7111    -188.9498    12508.336 
    1600    296.48359    265.09767   -3003.2558   -2562.2589   -103.10002    12510.396 
    1650    297.96455    265.21536   -3007.1788   -2563.9791    -145.8134     12512.28 
    1700    286.49369    264.68755   -2989.5849   -2563.4472    310.39558    12514.008 
    1750    295.85407     265.1046   -3003.4867   -2563.4262    42.774966     12515.76 
    1800    288.70597    264.79779   -2993.2598   -2563.8316    268.34176    12517.473 
    1850    295.33872    265.05501   -3001.8336   -2562.5396    10.005036    12519.199 
    1900    294.55046    264.93801   -2997.9336   -2559.8121    72.147076    12520.866 
    1950    294.51355    264.93933   -2997.9776   -2559.9111    79.907078    12522.461 
    2000    295.10313    264.92723   -2997.5744   -2558.6309   -16.564765    12524.003 
    2050    296.07022    264.96639   -2998.8795   -2558.4975   -63.080226    12525.439 
    2100    286.86505     264.5633   -2985.4432   -2558.7532    272.24701    12526.752 
    2150    301.71818    265.17121    -3005.707   -2556.9241   -255.40702    12528.052 
    2200    293.50051    264.80784   -2993.5948    -2557.035   -36.588619    12529.159 
    2250    292.94683     264.7247   -2990.8232    -2555.087   -16.789597    12530.129 
    2300    306.21812    265.24929   -3008.3098   -2552.8336   -441.94348    12530.945 
    2350    295.24105    264.78936   -2992.9788   -2553.8301   -14.967646    12531.446 
    2400    292.23954    264.59185   -2986.3951   -2551.7109    164.38596     12531.83 
    2450    299.20285    264.76682   -2992.2272   -2547.1856    5.6394914    12532.184 
    2500    302.82797    264.86769   -2995.5897    -2545.156   -76.029022    12532.427 
    2550    302.72528    264.84409   -2994.8029    -2544.522   -28.611004    12532.529 
    2600    299.01567    264.69414   -2989.8046   -2545.0414    204.13028    12532.527 
    2650    293.01676    264.34302   -2978.1005   -2542.2603    580.02993    12532.538 
    2700    301.50782    264.63602   -2987.8672   -2539.3972    419.90368    12532.742 
    2750     293.5835    264.28948   -2976.3161   -2539.6329    831.80044     12533.12 
    2800    294.09864    264.30366   -2976.7887   -2539.3393    812.52214    12533.847 
    2850    308.76313    264.80807   -2993.6024   -2534.3407    201.96548    12534.918 
    2900    314.77052    264.88143   -2996.0476   -2527.8503     -18.5351    12536.012 
    2950    318.71808    264.91179   -2997.0598   -2522.9908   -159.45466    12536.979 
    3000    310.24807    264.58788   -2986.2626   -2524.7921     156.6219    12537.763 
    3050    287.08101    263.63714   -2954.5712   -2527.5599    954.57481    12538.557 
    3100    299.38428    264.02855   -2967.6182   -2522.3068    529.53886    12539.707 
    3150    315.40691    264.72283   -2990.7612   -2521.6173   -29.736586    12541.064 
    3200    319.59552    264.82714    -2994.238   -2518.8639   -53.873659    12542.331 
    3250    324.46219    264.99076   -2999.6921   -2517.0791   -111.84476    12543.442 
    3300    306.43691    264.21143   -2973.7144   -2517.9128     588.4455     12544.42 
    3350    306.55451     264.2849   -2976.1632   -2520.1866    555.83739    12545.585 
    3400    315.67057    264.65726   -2988.5755   -2519.0394    227.91321    12546.957 
    3450    299.76304    263.98622   -2966.2075   -2520.3327     831.4206    12548.405 
    3500    298.63518    263.92556   -2964.1854   -2519.9882    870.37054    12550.196 
    3550     309.7302    264.37226   -2979.0752    -2518.375    390.31357    12552.357 
    3600    308.45256    264.17219   -2972.4063   -2513.6065    380.99305    12554.665 
    3650    310.59526    264.23105   -2974.3684   -2512.3815    328.40434    12557.076 
    3700    309.79979     264.1803   -2972.6768   -2511.8731    412.95597    12559.571 
    3750    299.39144    263.80612    -2960.204   -2514.8819    819.58974    12562.214 
    3800    302.35868    263.81978   -2960.6593   -2510.9237    737.22598    12565.198 
    3850    312.29658    264.23354   -2974.4512   -2509.9337    262.15386    12568.476 
    3900     309.9304    264.15335   -2971.7783   -2510.7803    256.86459    12571.827 
    3950    310.80441    264.24253   -2974.7511   -2512.4531    243.67893    12575.202 
    4000    309.84751    264.16723    -2972.241   -2511.3663    322.48902    12578.624 
    4050    317.15541    264.36759   -2978.9198   -2507.1751    43.597606    12582.102 
    4100     307.5578    263.98519   -2966.1729    -2508.704     218.4357    12585.534 
    4150    311.16977    264.15947   -2971.9824    -2509.141    73.360715    12588.944 
    4200    302.84647    263.76444   -2958.8146   -2508.3534    432.34512    12592.334 
    4250    306.89525    263.95523   -2965.1743   -2508.6909     410.8267     12595.83 
    4300    307.52982    264.03326   -2967.7753    -2510.348    431.39972    12599.458 
    4350    303.85582    263.83703   -2961.2343   -2509.2718    488.91633    12603.243 
    4400    316.95169    264.44687   -2981.5624   -2510.1208   -192.56176    12607.146 
    4450    310.82209     264.1736   -2972.4534   -2510.1291   -87.882626    12610.894 
    4500    295.41423    263.57035    -2952.345   -2512.9387    383.04355    12614.517 
    4550    299.54989    263.63924   -2954.6413   -2509.0835    110.29456    12618.216 
    4600    304.67511    263.89325   -2963.1083   -2509.9271   -98.312195    12621.872 
    4650    299.52294     263.7455   -2958.1834   -2512.6657    170.73066    12625.386 
    4700    298.19668    263.74864   -2958.2879   -2514.7429    234.45317    12628.885 
    4750    307.89283    264.19323   -2973.1075   -2515.1403    -129.9754    12632.382 
    4800    301.67274    263.93153   -2964.3843   -2515.6689    10.869356    12635.741 
    4850    298.88926    263.86955   -2962.3185   -2517.7434    49.931514    12638.984 
    4900    293.57224    263.62948    -2954.316   -2517.6495    178.58172    12642.166 
    4950     300.3827    263.88498   -2962.8328   -2516.0363   -96.169337    12645.328 
    5000    319.76296    264.65707    -2988.569   -2512.9458   -855.48935    12648.283 
    5050    303.86114    264.08639   -2969.5463   -2517.5759   -392.67564    12650.698 
    5100    297.17297    263.88802    -2962.934   -2520.9117   -170.05417    12652.756 
    5150    306.42158    264.31793   -2977.2644   -2521.4855    -575.8725    12654.565 
    5200    299.16199    264.10997   -2970.3324   -2525.3517   -434.19189    12655.947 
    5250    284.70122    263.64789   -2954.9297   -2531.4582   -26.958693    12656.983 
    5300    299.56154    264.17902   -2972.6341    -2527.059   -484.43567    12657.835 
    5350    294.27513    263.87845   -2962.6152   -2524.9032    -254.6299    12658.344 
    5400    281.87511    263.46868    -2948.956   -2529.6882    155.50373    12658.596 
    5450    285.31122    263.58721    -2952.907   -2528.5282   -45.681392    12658.809 
    5500    297.43005    264.13058   -2971.0193   -2528.6147   -608.24831    12658.868 
    5550    291.35099    263.79531   -2959.8436   -2526.4811   -430.58819    12658.512 
    5600    304.57011    264.39341   -2979.7803   -2526.7553   -919.76477    12657.736 
    5650    301.24234      264.294   -2976.4665   -2528.3914   -830.30066    12656.347 
    5700    294.98894    264.12503   -2970.8342   -2532.0605   -599.34849     12654.35 
    5750    293.17774    264.10404   -2970.1347   -2534.0551   -480.67614    12651.868 
    5800    288.47204    264.08368   -2969.4561   -2540.3758   -245.22543    12649.001 
    5850    277.92537     263.6547   -2955.1566   -2541.7637    149.18393    12645.899 
    5900     295.7229    264.33767   -2977.9225   -2538.0571   -549.34772    12642.686 
    5950    290.81597    264.23361   -2974.4535   -2541.8868    -563.9894    12639.087 
    6000    287.40891    264.13648   -2971.2159   -2543.7169   -462.10471    12635.035 
    6050    287.45266    264.19712   -2973.2373   -2545.6733   -430.81303    12630.594 
    6100    282.96432    264.10668   -2970.2226   -2549.3346   -231.40639    12625.786 
    6150    273.26037    263.87354   -2962.4514   -2555.9973    52.257839    12620.742 
    6200    295.05377    264.64847   -2988.2822   -2549.4121     -623.716    12615.549 
    6250    295.57462    264.81382   -2993.7939   -2554.1491   -576.68234    12609.913 
    6300    285.96996    264.44092   -2981.3641   -2556.0055   -198.97284    12603.848 
    6350     286.3098    264.46487   -2982.1623   -2556.2981   -211.83561    12597.522 
    6400    293.37655     264.8117   -2993.7234    -2557.348   -501.30729    12590.941 
    6450    294.00246    264.82381   -2994.1272   -2556.8208   -523.71356    12583.957 
    6500    279.64031    264.21119   -2973.7062   -2557.7624   -29.808816     12576.58 
    6550    293.34889    264.85489   -2995.1631   -2558.8288   -519.55948    12568.988 
    6600    292.55183    264.90887   -2996.9622   -2561.8135   -454.12343    12561.003 
    6650    284.06063    264.60574    -2986.858   -2564.3393    0.2870578    12552.666 
    6700    292.74443    264.94957   -2998.3188   -2562.8837   -128.22726     12544.16 
    6750    294.23174     265.0407   -3001.3568   -2563.7094   -171.79041    12535.475 
    6800     304.6743    265.45966   -3015.3219   -2562.1419   -454.87994    12526.545 
    6850    294.76317     265.0882   -3002.9401   -2564.5023    73.869649    12517.274 
    6900     288.1864    264.94312    -2998.104   -2569.4486    416.49159    12507.936 
    6950    306.21669    265.74319   -3024.7731   -2569.2989   -175.62443    12498.655 
    7000    299.35316    265.49171   -3016.3903   -2571.1252    108.88006    12489.216 
    7050    289.77022    260.08372   -3002.7908   -2571.7796    607.27719    12479.731 
    7100    274.93374    259.63396   -2987.7986   -2578.8555    1255.4873    12470.484 
    7150    284.67005    260.00389   -3000.1298   -2576.7047    1045.2238    12461.781 
    7200    293.26207    260.27906   -3009.3021    -2573.097     794.2418    12453.537 
    7250    297.67287    260.40922   -3013.6408   -2570.8749    627.75897    12445.618 
    7300    300.04295    260.49726   -3016.5753   -2570.2841    443.72862    12437.935 
    7350    303.78702    260.66494   -3022.1648   -2570.3046    259.68691    12430.368 
    7400    292.50471     260.2435   -3008.1166    -2573.038    693.17068    12422.855 
    7450     296.0534    260.39154   -3013.0514   -2572.6944    665.49724     12415.58 
    7500    304.70195    260.90234   -3030.0779   -2576.8568    379.08476    12408.529 
    7550    313.12828    261.19246   -3039.7485   -2573.9939    210.60569    12401.559 
    7600       300.42    260.78062   -3026.0206   -2579.1686    735.67187    12394.629 
    7650     287.5185    260.43609   -3014.5365   -2586.8745    1211.9156    12387.979 
    7700    296.42341    260.80771   -3026.9236   -2586.0162    911.57299    12381.836 
    7750    299.43238    260.86769   -3028.9229     -2583.54    811.36474      12376.1 
    7800    300.01757    260.95521   -3031.8404    -2585.587    799.40493    12370.707 
    7850    295.57402    260.91374   -3030.4579   -2590.8139    879.71921    12365.652 
    7900    288.22522    260.65878   -3021.9595   -2593.2463    1121.2882    12360.971 
    7950    288.32988    260.72844   -3024.2813   -2595.4124     1090.491    12356.777 
    8000    296.04428    261.08829   -3036.2764   -2595.9329    798.26204    12353.057 
    8050     284.8789    265.76133   -3025.3776   -2601.6418    1208.2144    12349.702 
    8100    287.77809    265.92609   -3030.8696   -2602.8215    1162.7624    12346.881 
    8150    276.59474    265.50261   -3016.7535   -2605.3398    1565.2344     12344.65 
    8200    290.39655    266.05002   -3035.0006   -2603.0577    1099.5931    12343.119 
    8250    297.31252    266.37558   -3045.8526   -2603.6228    762.86623    12342.112 
    8300     286.3853    266.02288   -3034.0958   -2608.1194    1082.4609     12341.47 
    8350    287.87569    266.08515   -3036.1715   -2607.9782     924.9175    12341.305 
    8400    282.28863    265.93348   -3031.1161   -2611.2332    1067.0722    12341.573 
    8450    274.12497    265.71133   -3023.7111   -2615.9709    1267.1584    12342.355 
    8500    293.57694    266.55736   -3051.9121   -2615.2386    469.31418    12343.665 
    8550     288.5582     266.3389   -3044.6299   -2615.4215    624.70433    12345.196 
    8600    278.77999    265.97711   -3032.5702   -2617.9061    993.48137    12346.994 
    8650    284.79648    266.24887   -3041.6291    -2618.016    679.06362    12349.204 
    8700    288.54596    266.41659   -3047.2198   -2618.0295    377.72299    12351.727 
    8750    292.73094     266.6084   -3053.6134   -2618.1983    176.55935    12354.364 
    8800    264.52095    265.67262   -3022.4207   -2628.9659    1089.4088    12357.061 
    8850    264.92846    265.61856   -3020.6186   -2626.5576    1109.1862    12360.236 
    8900    281.61824    266.26257   -3042.0857      -2623.2    507.96141    12363.919 
    8950    279.11912    266.15559   -3038.5197   -2623.3511    492.77117    12367.841 
    9000    284.49676    266.31723   -3043.9076   -2620.7402    162.11098    12371.944 
    9050    274.00795    265.96965   -3032.3215   -2624.7555     396.1725    12376.084 
    9100    276.48921     266.0092     -3033.64   -2622.3832    297.32051    12380.338 
    9150    276.22175    266.08514   -3036.1713   -2625.3124    277.81172    12384.679 
    9200    276.49926    266.11575   -3037.1917     -2625.92    312.24943    12389.092 
    9250    282.53726    266.38132    -3046.044   -2625.7912    119.40754    12393.589 
    9300    271.47026    265.82818   -3027.6059   -2623.8144    519.83279    12398.107 
    9350     286.9554    266.36852   -3045.6173   -2618.7929    31.025564    12402.788 
    9400    282.18638    266.19208   -3039.7361   -2620.0053     168.2447     12407.45 
    9450    273.61602    265.81623   -3027.2078   -2620.2247    398.26297     12412.13 
    9500    285.49611    266.23049   -3041.0165   -2616.3626   -102.55658    12416.912 
    9550    278.49551    265.88493   -3029.4977   -2615.2568   -20.314336     12421.59 
    9600    281.29969    266.00888   -3033.6292   -2615.2172   -205.39756    12426.151 
    9650    274.78798     265.7316   -3024.3867   -2615.6604    37.254878    12430.539 
    9700    272.13858    265.55859   -3018.6197   -2613.8342    197.97106    12434.852 
    9750    276.76152    265.67008   -3022.3359   -2610.6741    51.666199    12439.174 
    9800    281.22006    265.86551   -3028.8503   -2610.5567   -60.932656    12443.439 
    9850    281.22113    265.77752   -3025.9172   -2607.6221     37.61952    12447.598 
    9900    280.51204    265.60231   -3020.0771   -2602.8367    18.409087    12451.696 
    9950    287.24813    265.79643   -3026.5477   -2599.2879   -309.11856    12455.696 
   10000    292.84512    265.80073    -3026.691   -2591.1061   -429.68507    12459.447 
   10050    296.76487    265.87379   -3029.1262    -2587.711   -390.90922    12462.867 
   10100    287.23424    265.41646   -3013.8821    -2586.643    96.180601    12466.006 
   10150    283.02581    265.23487   -3007.8289   -2586.8494    347.60445    12469.083 
   10200    278.40092    265.01488   -3000.4959   -2586.3956    459.39387    12472.264 
   10250    285.70387    265.26835   -3008.9451   -2583.9822    113.98991    12475.599 
   10300    292.89982    265.51235   -3017.0783    -2581.412   -119.81726    12478.897 
   10350    291.46027    265.35522   -3011.8406   -2578.3155   -38.673256    12482.062 
   10400    301.65327    265.72858   -3024.2861   -2575.5997   -372.38577    12485.084 
   10450    287.51645    265.10134   -3003.3781   -2575.7192    237.87884    12487.861 
   10500    285.81823    264.99442   -2999.8141   -2574.6811    425.28974     12490.65 
   10550    284.71429    264.98832   -2999.6106   -2576.1197    425.25149    12493.579 
   10600    278.94749    264.79682   -2993.2272   -2578.3139    586.35276    12496.684 
   10650    291.80263    265.21669    -3007.223   -2573.1887    142.08673    12500.011 
   10700    298.36506    265.36093   -3012.0311   -2568.2357   -123.48145    12503.342 
   10750    297.42387    265.22351   -3007.4503   -2565.0548   -90.368116    12506.521 
   10800    282.16551    264.59551    -2986.517   -2566.8172    468.87011    12509.577 
   10850    285.53151    264.75373   -2991.7912   -2567.0847    436.06413    12512.775 
   10900    292.35975    264.86446    -2995.482    -2560.619    340.70351    12516.147 
   10950    277.67383    264.42098   -2980.6993   -2567.6805    798.66417    12519.655 
   11000    282.88749    264.55443   -2985.1477    -2564.374    587.03629    12523.484 
   11050    282.65317    264.47507   -2982.5024   -2562.0772    585.50608    12527.586 
   11100    285.03989    264.51245   -2983.7482    -2559.773    465.77997    12531.925 
   11150    285.52769    264.51697   -2983.8989   -2559.1981    255.50449    12536.442 
   11200    289.36743    264.60772   -2986.9241    -2556.512    42.848171    12541.029 
   11250    290.89705    264.59385   -2986.4618   -2553.7745   -25.806199    12545.555 
   11300    291.29137    264.65347    -2988.449   -2555.1752   -34.696556    12549.981 
   11350    288.85715    264.44707   -2981.5691    -2551.916    110.79606    12554.319 
   11400    296.16952     264.7416   -2991.3868   -2550.8571    -142.0561    12558.592 
   11450    290.72101    264.48652   -2982.8839   -2550.4584    31.826309     12562.73 
   11500    296.08348    264.55755   -2985.2517     -2544.85   -65.732438    12566.773 
   11550    292.93628    264.45934   -2981.9779   -2546.2574    116.42225    12570.694 
   11600    288.39484    264.25998   -2975.3328   -2546.3673    354.16236    12574.589 
   11650    293.34711    264.39727   -2979.9089   -2543.5773    172.89293     12578.57 
   11700    289.91813    264.23544   -2974.5148   -2543.2836    160.15531    12582.572 
   11750    289.29323    264.19945    -2973.315   -2543.0132     78.16316    12586.565 
   11800    292.04145    264.21995   -2973.9985   -2539.6089   -17.091148    12590.522 
   11850    300.65943    264.42201   -2980.7338   -2533.5257   -251.23205    12594.355 
   11900    303.87289    264.47954   -2982.6513   -2530.6634   -365.88391    12597.961 
   11950    297.26705    264.25424   -2975.1414   -2532.9792   -156.16717    12601.273 
   12000    293.72828    264.10964   -2970.3214   -2533.4229   -27.434079    12604.395 
   12050    304.36616    264.48882   -2982.9607   -2530.2391    -324.7307    12607.385 
   12100    304.62846    264.46947   -2982.3155   -2529.2038     -300.094    12610.106 
   12150    306.84174    264.46126   -2982.0419    -2525.638   -356.52155    12612.545 
   12200    299.64564    264.18058   -2972.6861   -2526.9859   -104.85044    12614.689 
   12250    289.99211    263.70724    -2956.908   -2525.5668    271.84713    12616.686 
   12300    308.44719     264.3566   -2978.5533   -2519.7615    -330.9142    12618.665 
   12350     304.2557    264.19533   -2973.1778   -2520.6205   -251.98872    12620.392 
   12400    295.02651    263.87098   -2962.3659   -2523.5364    58.976928    12621.872 
   12450    297.87809    263.86361   -2962.1203   -2519.0492    73.169872    12623.261 
   12500    290.29501    263.52606   -2950.8686   -2519.0768     394.3823     12624.61 
   12550    302.55971    264.01364   -2967.1214   -2517.0868   -32.336388    12626.034 
   12600    304.84944    264.10108   -2970.0361   -2516.5957   -177.73981    12627.355 
   12650    291.49918     263.5728   -2952.4266   -2518.8437    390.81742     12628.49 
   12700    278.87828    263.05196   -2935.0652   -2520.2549    990.36682     12629.76 
   12750     293.4361    263.58829    -2952.943   -2516.4791    552.47899    12631.458 
   12800    297.82056    263.67613   -2955.8711   -2512.8856    381.49942    12633.399 
   12850    301.14953    263.71096   -2957.0318   -2509.0947    251.05008    12635.462 
   12900    304.74832    263.82321   -2960.7737   -2507.4837    65.783582    12637.571 
   12950    298.49168    263.59387    -2953.129   -2509.1453    195.77219    12639.648 
   13000    309.54459     263.9769   -2965.8965   -2505.4724   -110.21243    12641.701 
   13050    293.07903    263.29042   -2943.0141   -2507.0812    557.35865    12643.663 
   13100    298.90603    263.54193   -2951.3978   -2506.7978    429.62982    12645.795 
   13150    309.98029    263.90366   -2963.4552    -2502.383   -21.366206     12648.06 
   13200    313.59853    263.94647   -2964.8825   -2498.4284   -170.50393    12650.224 
   13250    302.10201    263.44322   -2948.1073   -2498.7535    166.18454     12652.22 
   13300    307.42144     263.6326     -2954.42   -2497.1539   -51.228523    12654.177 
   13350     306.9156    263.66163   -2955.3878   -2498.8741   -118.45707    12656.008 
   13400    299.16424      263.263      -2942.1   -2497.1159     170.1869    12657.686 
   13450    297.06512    263.18912   -2939.6372   -2497.7753    266.49052    12659.352 
   13500    300.51322    263.32812   -2944.2708   -2497.2802    133.26293    12661.052 
   13550    291.56771    262.93889   -2931.2964   -2497.6116    478.06788    12662.757 
   13600     288.5865    262.79463   -2926.4877   -2497.2371    593.38655    12664.633 
   13650    305.88716    263.50468   -2950.1559   -2495.1719    11.553959    12666.698 
   13700    293.92638    262.99061   -2933.0203   -2495.8271    482.55103    12668.746 
   13750    297.14696    263.00369   -2933.4563   -2491.4727    464.60734    12670.956 
   13800    313.67142    263.63513   -2954.5045    -2487.942   -90.775574    12673.307 
   13850    301.32929     263.2163   -2940.5432   -2492.3387    264.40815    12675.572 
   13900    295.22046    262.97275    -2932.425   -2493.3069    367.82507    12677.873 
   13950    310.52161    263.49143   -2949.7145   -2487.8371   -162.69534    12680.243 
   14000    297.04596    262.91586   -2930.5285   -2488.6952    343.23027     12682.49 
   14050     302.9523    263.06414   -2935.4714   -2484.8528    234.29551    12684.807 
   14100    315.69889    263.59784   -2953.2612   -2483.6831   -176.92985    12687.131 
   14150    301.70868    263.15059   -2938.3529   -2489.5841    199.55558    12689.317 
   14200      321.432    263.78811   -2959.6036   -2481.4978   -363.43681    12691.446 
   14250    307.73426    263.18215    -2939.405   -2481.6736     106.4432    12693.329 
   14300    310.22023      263.402   -2946.7333   -2485.3043   -98.849188    12695.129 
   14350    307.86552    263.22089   -2940.6965   -2482.7698   -66.631594    12696.785 
   14400    297.95261     262.6985   -2923.2833   -2480.1014    365.09508    12698.323 
   14450    300.06545    262.81607   -2927.2023   -2480.8777    349.65439    12699.958 
   14500    316.63424    263.37623   -2945.8745    -2474.905   -189.66178    12701.654 
   14550    317.87921    263.39466   -2946.4887   -2473.6675    -254.6418    12703.164 
   14600    311.93822     263.2493   -2941.6435    -2477.659   -109.47997    12704.421 
   14650    306.82352    262.95776   -2931.9253   -2475.5485     111.7798    12705.496 
   14700    316.38667    263.40424   -2946.8079   -2476.2067   -111.81216    12706.495 
   14750    302.38074    262.80845   -2926.9483   -2477.1799     397.3158     12707.38 
   14800    308.07639     263.1426   -2938.0867   -2479.8464    174.98946    12708.325 
   14850    313.45983    263.36782   -2945.5941   -2479.3464   -76.737438    12709.266 
   14900    313.39555    263.35885   -2945.2949   -2479.1428   -112.24637    12710.064 
   14950    309.68751    263.24155   -2941.3849   -2480.7482     31.31354    12710.686 
   15000    311.73804    263.36017   -2945.3391   -2481.6524    6.5090372    12711.208 
   15050    315.63595    263.48761    -2949.587   -2480.1024   -105.06898    12711.607 
   15100    301.72717    262.93711   -2931.2369   -2482.4406    320.42777    12711.853 
   15150    295.84474    262.73733   -2924.5778   -2484.5312    460.99625     12712.16 
   15200     294.0567    262.82038    -2927.346   -2489.9589    412.79942    12712.622 
   15250    294.31443    262.73838   -2924.6127   -2486.8422     292.4674    12713.234 
   15300    316.19692    263.57575   -2952.5252   -2482.2062   -511.66243    12713.862 
   15350    313.91604    263.51943   -2950.6477   -2483.7213   -364.81609    12714.128 
   15400    301.62779     263.0007   -2933.3566   -2484.7081    204.01695    12714.077 
   15450    303.18158    263.12829   -2937.6097   -2486.6501    155.96433    12713.998 
   15500    305.37055     263.2025   -2940.0833   -2485.8678   -57.906355    12713.884 
   15550    300.31264    263.05877   -2935.2923      -2488.6   -50.921654    12713.631 
   15600     312.2808    263.56347   -2952.1155   -2487.6215   -467.55049    12713.195 
   15650     310.3986     263.4605   -2948.6832   -2486.9888   -410.27709    12712.391 
   15700    305.58902    263.37099   -2945.6998   -2491.1593    -339.3093    12711.214 
   15750    296.96861     263.2104   -2940.3468   -2498.6285   -143.28256    12709.713 
   15800    303.50888    263.52843   -2950.9476   -2499.5012   -340.09368    12707.969 
   15850     291.8793    263.14956   -2938.3186   -2504.1703    31.787706    12705.932 
   15900    298.86552    263.49262    -2949.754   -2505.2142   -150.08664    12703.735 
   15950    305.96066    263.90098    -2963.366   -2508.2727   -356.37859    12701.299 
   16000    283.23227    263.09084   -2936.3615    -2515.075    301.00969     12698.59 
   16050    286.60901    263.21769   -2940.5896   -2514.2805    155.63879    12695.871 
   16100    284.84901    263.20329   -2940.1096   -2516.4183    215.59247    12693.128 
   16150    307.94797    264.14081   -2971.3603   -2513.3111   -534.37977    12690.314 
   16200    301.69815    263.94475   -2964.8251    -2516.072   -409.84388    12687.105 
   16250    297.74591    263.90408   -2963.4694   -2520.5949   -269.11102    12683.487 
   16300    278.49643    263.17091   -2939.0304   -2524.7881     360.3667      12679.6 
   16350    296.37862    263.94658   -2964.8859   -2524.0452   -318.94207    12675.693 
   16400    303.10112    264.21052    -2973.684    -2522.844   -654.79034    12671.502 
   16450    308.62573    264.59799   -2986.5996   -2527.5422   -916.12023    12666.749 
   16500    298.08873    264.19344   -2973.1145   -2529.7301   -626.29957    12661.331 
   16550    309.65251    264.71209   -2990.4032   -2529.8185   -1021.7865    12655.323 
   16600    293.63179    264.14732   -2971.5775   -2534.8224   -448.23056    12648.615 
   16650    299.50451    264.43493   -2981.1645   -2535.6742   -591.36736    12641.411 
   16700    293.13076    264.18315   -2972.7715   -2536.7617   -347.56895    12633.715 
   16750    292.70935    264.23142   -2974.3806   -2538.9976   -218.72769    12625.622 
   16800    295.90113    264.36707   -2978.9022   -2538.7717   -287.36149    12617.212 
   16850    297.48844    264.48952   -2982.9838   -2540.4923   -274.99221     12608.44 
   16900    283.11954    263.94455   -2964.8182   -2543.6993    332.57691    12599.343 
   16950    294.52357    264.38361   -2979.4535    -2541.372   -1.6128392    12590.184 
   17000    298.10552    264.62211   -2987.4037   -2543.9943   -189.32493    12580.839 
   17050    305.96062    264.82287   -2994.0955   -2539.0023   -461.14966    12571.176 
   17100    312.05988    265.04827   -3001.6089   -2537.4435   -659.36032    12561.047 
   17150    300.77022    264.67074   -2989.0246   -2541.6517   -167.57685    12550.374 
   17200    300.06124    264.64512   -2988.1707   -2541.8524    63.716157    12539.368 
   17250    286.91326    264.24029   -2974.6762   -2547.9145    581.07336    12528.215 
   17300    304.20974    264.92535   -2997.5116   -2545.0227    92.064014    12517.113 
   17350    294.73612    264.53651   -2984.5503   -2546.1526    505.51025    12505.923 
   17400    296.42254    264.52936    -2984.312    -2543.406    563.60038    12494.781 
   17450    292.83362    264.44272    -2981.424   -2545.8562    670.96243    12483.764 
   17500      311.277    265.25561   -3008.5202   -2545.5193     76.46946     12472.88 
   17550    301.31825    264.92061   -2997.3537   -2549.1657    508.98791    12461.893 
   17600    294.25725     264.5935   -2986.4501   -2548.7648    859.33067    12450.987 
   17650    312.01646    265.43894   -3014.6312   -2550.5303    192.21284    12440.316 
   17700    322.27741    265.82166   -3027.3886   -2548.0254   -6.3330941    12429.563 
   17750    295.49043    264.82399   -2994.1328   -2554.6132    1096.5825    12418.692 
   17800    303.93175    265.27313   -3009.1045   -2557.0291    1024.5855    12408.149 
   17850    300.09198    265.07163   -3002.3875   -2556.0235    1274.9235     12398.03 
   17900    306.77821    265.40417   -3013.4723   -2557.1629    1120.4583    12388.412 
   17950     312.2261    265.63861    -3021.287   -2556.8743    999.00064    12379.245 
   18000    315.09208    265.72695   -3024.2318   -2555.5562    1014.7289    12370.471 
   18050    308.09536    260.38891   -3012.9637   -2554.6952    1329.6085    12362.101 
   18100    314.94972    260.65286    -3021.762   -2553.2982    1114.7909    12354.242 
   18150    298.53452    260.13577   -3004.5255    -2560.478     1746.936    12346.856 
   18200     291.4919    259.91515   -2997.1718   -2563.5997    2030.3403    12340.248 
   18250    313.90287    260.84037   -3028.0123   -2561.1056    1225.0746    12334.549 
   18300    313.01797    260.83977   -3027.9922   -2562.4017    1296.7248    12329.423 
   18350    320.71867    261.15578   -3038.5261   -2561.4814    1034.9937    12324.829 
   18400    318.48014     261.0945   -3036.4834   -2562.7683    969.65274    12320.664 
   18450    320.18348    261.21361   -3040.4537   -2564.2051    840.04789    12316.877 
   18500     316.4407    261.11751   -3037.2502   -2566.5686    1105.2595    12313.423 
   18550    290.06593    260.11573   -3003.8576   -2572.4065     2096.383    12310.474 
   18600    310.00406    260.88458    -3029.486   -2568.3785    1426.0271    12308.422 
   18650    297.79108    260.52731    -3017.577   -2574.6353    1802.1036    12307.104 
   18700     300.8812    260.60798   -3020.2659   -2572.7279    1796.5826    12306.647 
   18750    314.15018    261.18068   -3039.3559   -2572.0813    1316.4508    12307.038 
   18800    304.60897    260.85008   -3028.3359   -2575.2532    1624.7792    12308.099 
   18850    314.87012    261.32489   -3044.1629   -2575.8174    1164.1487    12309.905 
   18900    310.88268    261.20068   -3040.0225   -2577.6081    1060.3531    12312.294 
   18950    303.65775    260.93552   -3031.1839   -2579.5161     1187.269    12315.192 
   19000    307.34942    261.20443   -3040.1478   -2582.9888    984.67587    12318.631 
   19050    300.37132    256.01522   -3033.8406    -2587.061    1080.6556    12322.556 
   19100    315.80625    256.67606   -3055.8688    -2586.131    518.57182    12326.939 
   19150    308.29916    256.34479   -3044.8263   -2586.2547    741.49793    12331.576 
   19200    313.59759    256.51341   -3050.4471   -2583.9945    534.94969     12336.52 
   19250    305.67085    256.18199   -3039.3996   -2584.7374    721.73994    12341.712 
   19300    303.35518    256.21251   -3040.4169    -2589.199    588.23453    12347.198 
   19350    301.34853    256.18583   -3039.5275   -2591.2944    536.62476     12352.95 
   19400    294.30349    255.95258   -3031.7527   -2593.9986    676.57822    12358.936 
   19450    295.40304    255.99859   -3033.2863   -2593.8966    524.98952     12365.21 
   19500    290.45939    255.85815    -3028.605   -2596.5687    496.11368    12371.735 
   19550    301.65995    256.25764   -3041.9213    -2593.225    70.252773     12378.45 
   19600    295.59497    256.04094    -3034.698   -2595.0228    211.99197    12385.174 
   19650    296.13787    256.11651   -3037.2169   -2596.7343     102.1941    12391.948 
   19700    294.59376     256.0074     -3033.58   -2595.3941    83.767415    12398.735 
   19750    298.68328    256.17366    -3039.122   -2594.8533   -120.86743    12405.483 
   19800    292.56424    255.98476   -3032.8252   -2597.6581  -0.96402768     12412.13 
   19850    294.03866    255.99999   -3033.3329   -2595.9727   -72.431012    12418.698 
   19900    297.99569     256.1508   -3038.3602   -2595.1142   -357.85947     12425.15 
   19950    299.32479    256.21933   -3040.6444   -2595.4215   -605.04333    12431.343 
   20000    302.40949    256.33836   -3044.6121   -2594.8009   -680.22471    12437.108 
   20050    288.11198    250.82135   -3027.3783   -2598.8336   -150.53241    12442.446 
   20100    294.25857     251.0464   -3034.8799   -2597.1926   -388.55776    12447.557 
   20150     301.0544    251.20729   -3040.2431   -2592.4475   -634.21869    12452.349 
   20200    300.13633    251.20597    -3040.199   -2593.7689   -611.11417    12456.691 
   20250    309.10412    251.53898   -3051.2992   -2591.5302   -892.60992    12460.545 
   20300    292.29808    250.92537   -3030.8458   -2596.0745   -438.01958    12463.819 
   20350    288.43844    250.73218   -3024.4061   -2595.3758    -377.5627    12466.684 
   20400    296.76539     251.0467     -3034.89    -2593.474   -744.29009    12469.205 
   20450    306.35506    251.43151    -3047.717    -2592.037   -1143.4906    12471.182 
   20500    292.56199    250.94391   -3031.4635   -2596.2997   -715.56588    12472.406 
   20550    292.94097    250.96161   -3032.0535    -2596.326   -619.73537     12473.06 
   20600     295.0393    251.05416   -3035.1387   -2596.2901    -603.1669    12473.211 
   20650    292.35068    250.99886   -3033.2953   -2598.4459   -555.79723    12472.867 
   20700    301.23415    251.29978    -3043.326    -2595.263   -935.45543    12472.044 
   20750    309.24354    251.54556   -3051.5185   -2591.5422   -1200.5365    12470.518 
   20800    309.53083    251.53662   -3051.2206    -2590.817   -1147.6057    12468.139 
   20850    296.10738    251.02461   -3034.1535   -2593.7162   -735.58352    12464.961 
   20900    305.63993    251.50914   -3050.3045   -2595.6883   -1075.5662    12461.115 
   20950     294.2392      251.141   -3038.0334   -2600.3749    -718.3335     12456.52 
   21000    298.99231    251.19842   -3039.9472   -2595.2188   -779.80607     12451.29 
   21050    306.60354     246.5432     -3051.44   -2595.3904   -1009.3595    12445.397 
   21100     298.4944    246.27735   -3042.5785   -2598.5907   -643.33568    12438.746 
   21150    295.98464    246.16854   -3038.9514   -2598.6967   -350.95921    12431.484 
   21200    292.65457    246.01604   -3033.8681   -2598.5666   -99.568101      12423.8 
   21250    305.64586    246.45713    -3048.571   -2593.9459   -368.57027    12415.779 
   21300    296.82676    246.11509   -3037.1697   -2595.6624    25.323815    12407.363 
   21350    298.57375    246.23844   -3041.2813   -2597.1755     42.37127    12398.686 
   21400    300.83301    246.38394   -3046.1315   -2598.6652    26.474784    12389.781 
   21450    296.23899     246.2976   -3043.2535   -2602.6204    130.30193    12380.674 
   21500    318.73424    247.13978   -3071.3259   -2597.2329   -570.05284    12371.331 
   21550    311.11832    246.82555   -3060.8517   -2598.0868   -247.68441    12361.479 
   21600    287.20874    245.88593   -3029.5309   -2602.3297    797.66651    12351.271 
   21650    296.30377    246.14615   -3038.2051   -2597.4757    769.03739    12341.208 
   21700    308.69247    246.58063   -3052.6876   -2593.5309    418.84023    12331.309 
   21750    318.52211     246.9875   -3066.2501   -2592.4726    137.35695    12321.379 
   21800     318.9287    247.00553    -3066.851   -2592.4687    221.92196    12311.303 
   21850    313.46302    246.86988   -3062.3295    -2596.077    453.22927      12301.1 
   21900    314.81015    247.03396   -3067.7986   -2599.5424     404.2758    12290.895 
   21950    320.64373    247.22593   -3074.1976   -2597.2643    255.93563    12280.657 
   22000    307.85749    246.76386   -3058.7953   -2600.8806    730.51007    12270.354 
   22050    316.31951    252.19389   -3073.1295   -2602.6282    526.93543    12260.173 
   22100    305.20913    251.82236   -3060.7452   -2606.7698     952.2584     12250.11 
   22150    306.27163    251.90025   -3063.3418   -2607.7859    1073.2885    12240.321 
   22200    295.99183    251.51081   -3050.3605   -2610.0951     1620.355    12230.927 
   22250    299.33376    251.63805   -3054.6016   -2609.3654    1699.0161    12222.185 
   22300    310.88671     252.1006     -3070.02   -2607.5995    1292.0771    12214.154 
   22350    316.28728    252.37975    -3079.325   -2608.8716     1024.775    12206.618 
   22400    309.57122    252.10175   -3070.0584   -2609.5947    1360.4968    12199.472 
   22450    309.40088    252.12003   -3070.6677   -2610.4573    1466.2656     12192.86 
   22500    311.49301    252.24785   -3074.9283    -2611.606    1401.1533     12186.84 
   22550    295.43925    251.76928   -3058.9759   -2619.5324    1814.5349    12181.427 
   22600    312.27255    252.49069   -3083.0229   -2618.5412    1235.6541    12176.749 
   22650    303.71244    252.24224   -3074.7414   -2622.9922    1490.3352    12172.628 
   22700    304.27802    252.33732   -3077.9106   -2625.3201    1492.5206    12169.119 
   22750    305.42739    252.41084   -3080.3613   -2626.0612    1456.4271     12166.25 
   22800    292.76576    252.03234   -3067.7448   -2632.2779    1842.1137    12164.041 
   22850    307.37094    252.62709   -3087.5696   -2630.3786    1365.3167     12162.61 
   22900    299.23588    252.41618   -3080.5393   -2635.4486    1556.6011    12161.811 
   22950     297.6754    252.45862   -3081.9541   -2639.1845    1561.7884    12161.687 
   23000    282.25809    251.92873   -3064.2911   -2644.4536    1928.5675    12162.305 
   23050    313.01753    248.16523   -3105.5076   -2639.9177    758.41092    12163.736 
   23100    300.42377    247.64767   -3088.2557   -2641.3981    1117.5512    12165.533 
   23150    293.74167    247.47685   -3082.5617   -2645.6432    1327.5662     12167.77 
   23200     301.8237    247.81843   -3093.9477   -2645.0078    988.87598    12170.577 
   23250    302.80431    248.04119   -3101.3729   -2650.9745     747.5179    12173.796 
   23300    301.53591    247.99989   -3099.9962   -2651.4844    731.70019    12177.301 
   23350    297.02313     247.8077     -3093.59   -2651.7907    852.81297     12181.08 
   23400    305.23726    248.03329   -3101.1095   -2647.0922    492.29483    12185.173 
   23450    317.11072    248.46754   -3115.5846   -2643.9064    5.3922707    12189.391 
   23500      305.254      248.151   -3105.0334   -2650.9912    344.52655    12193.519 
   23550     290.5198    247.68219   -3089.4064   -2657.2802    767.19966    12197.723 
   23600    295.25419    247.80483   -3093.4942    -2654.326    542.46194    12202.188 
   23650    299.06068    247.91803   -3097.2675   -2652.4374    324.37539    12206.805 
   23700    286.16401    247.44846   -3081.6152    -2655.968    691.27503    12211.522 
   23750     289.4843     247.5845   -3086.1501   -2655.5642    579.58888    12216.479 
   23800    292.44159    247.75923   -3091.9742   -2656.9895    414.70603    12221.632 
   23850    303.24615    248.12616   -3104.2053   -2653.1497    -18.86361    12226.883 
   23900    299.80516    248.00647   -3100.2157   -2654.2783    13.763517    12232.016 
   23950    285.08237    247.53388   -3084.4625   -2660.4241    339.99503     12237.07 
   24000    302.01628    248.13019   -3104.3395   -2655.1132   -312.93398    12242.141 
   24050    296.42193    247.93087   -3097.6956   -2656.7905   -164.21905    12246.968 
   24100    284.06569    247.40717   -3080.2389   -2657.7127    295.89666    12251.598 
   24150    284.98224    247.49286   -3083.0954    -2659.206    262.49405    12256.243 
   24200    288.12163    247.57038   -3085.6792   -2657.1201    149.16097    12260.917 
   24250    281.51578    247.32294   -3077.4312   -2658.6978    332.02305    12265.568 
   24300    282.50825    247.36038   -3078.6794   -2658.4698    160.70571    12270.261 
   24350    285.74958    247.46147    -3082.049   -2657.0182   -85.894485    12274.925 
   24400    288.25505    247.57627   -3085.8756    -2657.118   -240.56665    12279.429 
   24450    280.57498    247.25911   -3075.3037   -2657.9697   -31.933753    12283.698 
   24500    280.14628    247.15943   -3071.9811   -2655.2847    -68.26496    12287.819 
   24550    282.99156    247.28286   -3076.0954   -2655.1669   -234.87591    12291.776 
   24600    289.05612    247.47888   -3082.6294   -2652.6803   -447.05116    12295.478 
   24650    280.94313    247.15491   -3071.8305   -2653.9489   -110.18804    12298.838 
   24700    275.99844      246.935   -3064.4999   -2653.9731    127.70693    12302.006 
   24750     287.4212    247.36343   -3078.7809   -2651.2637   -280.17542    12305.089 
   24800    295.98995    247.63683   -3087.8942   -2647.6316   -538.45321    12307.893 
   24850    295.24467    247.63711   -3087.9037   -2648.7496    -450.3617    12310.269 
   24900    288.87008    247.27739   -3075.9129   -2646.2406    -206.1495     12312.27 
   24950    294.72873    247.46498   -3082.1661   -2643.7795   -372.10018    12313.993 
   25000    289.44144    247.23417   -3074.4725   -2643.9503   -171.71286    12315.379 
   25050    284.93944    247.02056   -3067.3519    -2643.526   -65.759761    12316.518 
   25100    285.51961    247.01551   -3067.1837   -2642.4949   -108.66171    12317.469 
   25150    288.94806    247.01456   -3067.1519   -2637.3635   -175.92077    12318.205 
   25200    286.07146    246.85587   -3061.8625   -2636.3528   -68.790196    12318.708 
   25250    300.93252    247.46971   -3082.3236   -2634.7093   -532.71615    12318.977 
   25300    293.57153    247.17197   -3072.3989   -2635.7335   -194.68963    12318.857 
   25350    297.19642    247.30303   -3076.7676   -2634.7104   -259.25194    12318.443 
   25400    296.05358     247.1839   -3072.7967   -2632.4394    -219.2622    12317.732 
   25450    277.83413    246.41626   -3047.2087   -2633.9515    418.41806     12316.77 
   25500    288.59256    246.84958   -3061.6528   -2632.3932    146.12566    12315.829 
   25550    293.20516    246.98786   -3066.2619   -2630.1415    92.026809    12314.826 
   25600      292.629    246.95622   -3065.2075    -2629.944      285.224    12313.705 
   25650    292.43348    246.88002   -3062.6675   -2627.6948    418.42847    12312.581 
   25700    299.15979    247.05049   -3068.3496   -2623.3721    104.42743    12311.495 
   25750    313.38922    247.45876   -3081.9585   -2615.8158   -397.60145    12310.291 
   25800    300.75076    246.96899    -3065.633   -2618.2891     141.2114    12308.758 
   25850    289.69789    246.58967    -3052.989   -2622.0854    589.76633    12307.125 
   25900     298.4698    246.87855   -3062.6185   -2618.6673    283.14861    12305.627 
   25950    301.18615     246.8866   -3062.8866    -2614.895    212.77813    12304.129 
   26000    310.67268    247.20471   -3073.4904   -2611.3883   0.16395193    12302.552 
   26050    307.19821     246.9901   -3066.3365   -2609.4025    225.60329    12300.841 
   26100    310.97309    247.13947   -3071.3157   -2608.7668     235.6738    12299.054 
   26150    307.18837    247.00634   -3066.8779   -2609.9585     349.0301    12297.236 
   26200    314.22201    247.28108   -3076.0358   -2608.6544    94.819815     12295.41 
   26250    298.45124    246.73678   -3057.8927   -2613.9692    722.84701    12293.502 
   26300    284.02602    246.20856   -3040.2854   -2617.8182    1333.1155    12291.822 
   26350    298.36294     246.6898   -3056.3266   -2612.5344    934.54043    12290.655 
   26400    308.18771    247.04938   -3068.3128   -2609.9069    595.52863    12289.863 
   26450    310.10596    247.04525   -3068.1751    -2606.916    555.66341    12289.255 
   26500    317.69723    247.23622   -3074.5407   -2601.9901    320.90285     12288.78 
   26550    313.47917    247.08282   -3069.4274   -2603.1509    473.90019    12288.343 
   26600    304.58058    246.77283   -3059.0943   -2606.0538    796.41784    12288.001 
   26650    297.76229    246.52484    -3050.828   -2607.9292    936.19582    12287.931 
   26700     313.6172    247.11733   -3070.5776   -2604.0958    376.87719    12288.171 
   26750    313.72533    247.14547   -3071.5155   -2604.8729    301.14413    12288.493 
   26800    302.28221    246.65739   -3055.2463   -2605.6244    735.89745    12288.838 
   26850    309.01951    246.99176   -3066.3918   -2606.7487     524.9712     12289.39 
   26900     307.2853    246.90176   -3063.3921   -2606.3285    567.46647    12290.108 
   26950    308.03713     246.9874   -3066.2468   -2608.0649    509.85559    12290.975 
   27000    314.69688    247.18937   -3072.9789   -2604.8911    271.57445    12291.946 
   27050    306.52216    251.85041   -3061.6804    -2605.752    537.80943     12292.95 
   27100    311.18763    252.09298   -3069.7661   -2606.8981    414.21323     12294.08 
   27150    303.57214       251.81   -3060.3333   -2608.7927    593.60231    12295.322 
   27200    301.83302     251.8428   -3061.4266   -2612.4729    508.23756    12296.742 
   27250     288.1688    251.34217   -3044.7389   -2616.1097    985.44754    12298.349 
   27300    291.71328    251.37347   -3045.7823   -2611.8809    995.21989     12300.34 
   27350    300.59274    251.72956    -3057.652   -2610.5431    713.22541    12302.724 
   27400    289.61229    251.34616   -3044.8721   -2614.0958    975.20859    12305.427 
   27450    308.23143    252.06167   -3068.7223   -2610.2515    254.46154    12308.481 
   27500    298.25123    251.72629   -3057.5431    -2613.917    454.24747    12311.615 
   27550     310.0929    252.14211   -3071.4037    -2610.164     24.61388    12314.817 
   27600        297.4    251.62398   -3054.1326   -2611.7726    377.06556    12317.964 
   27650    299.91845    251.77043   -3059.0145   -2612.9085    248.21985    12321.163 
   27700    306.23599    251.92149   -3064.0498    -2608.547    89.335943    12324.368 
   27750    302.52696    251.76936   -3058.9786   -2608.9927    260.39715    12327.499 
   27800    291.12366    251.43277   -3047.7591   -2614.7347    607.14455     12330.67 
   27850    303.13506    251.84541   -3061.5136   -2610.6232    237.80329    12334.019 
   27900    308.97263    252.03186   -3067.7288   -2608.1554    24.875944    12337.385 
   27950    303.64917    251.75897   -3058.6323   -2606.9772    203.50014    12340.643 
   28000    287.40006    251.30715   -3043.5716   -2616.0858    592.77485    12343.907 
   28050    294.00088    256.59979   -3053.3262   -2616.0222    304.29341    12347.339 
   28100    293.57635    256.52941   -3050.9804   -2614.3078    233.12105    12350.829 
   28150      288.325    256.31783   -3043.9277   -2615.0662    366.09442    12354.351 
   28200    298.06845    256.69294   -3056.4312    -2613.077   -3.1389141    12357.939 
   28250     297.5499    256.69597   -3056.5324   -2613.9495   -89.364359    12361.446 
   28300    304.48301    256.92116   -3064.0386   -2611.1432   -329.16358    12364.773 
   28350    300.14279     256.8357     -3061.19   -2614.7503   -279.24501    12367.822 
   28400    299.04935    256.73344   -3057.7812    -2612.968   -348.14816    12370.601 
   28450    308.35686    257.17253   -3072.4178   -2613.7604   -763.23852    12373.031 
   28500    286.13145    256.26772   -3042.2573   -2616.6584   -40.431073    12374.981 
   28550    289.81582     256.4383   -3047.9433   -2616.8642   -113.94686    12376.733 
   28600    289.92574    256.50819   -3050.2728   -2619.0303   -135.68735    12378.322 
   28650    293.15736    256.72891   -3057.6304    -2621.581   -345.35301    12379.698 
   28700    299.02307    256.91708   -3063.9026   -2619.1285   -581.65803    12380.757 
   28750    287.88675      256.521   -3050.7001   -2622.4904   -178.86662      12381.4 
   28800    287.70149    256.49889   -3049.9629   -2622.0287   -156.80481    12381.791 
   28850    293.21422    256.71071   -3057.0236   -2620.8897   -336.29833    12381.958 
   28900    291.91376    256.67851   -3055.9505   -2621.7509    -337.6103    12381.827 
   28950    291.91285    256.76816   -3058.9386   -2624.7404   -376.62041    12381.372 
   29000    279.54284    256.25879   -3041.9596   -2626.1608    111.89774    12380.611 
   29050    295.06011    251.91528   -3063.8428   -2624.9632   -404.30426    12379.712 
   29100    290.88395    251.74957    -3058.319   -2625.6512   -223.35837    12378.454 
   29150     271.4549    251.03461   -3034.4871   -2630.7185    363.55506    12376.963 
   29200    287.40625    251.65199   -3055.0662   -2627.5712   -228.70704    12375.469 
   29250    289.48574    251.74647   -3058.2155   -2627.6274   -274.85504    12373.723 
   29300    288.71508    251.67368   -3055.7893   -2626.3474   -193.20383     12371.69 
   29350    301.25489    252.14322   -3071.4408    -2623.347   -617.18583    12369.363 
   29400    291.95609    251.85826   -3061.9419   -2627.6793   -376.77783    12366.572 
   29450     299.7783    252.23073   -3074.3578   -2628.4603   -708.26197    12363.372 
   29500    304.33146    252.35281   -3078.4268   -2625.7569   -903.90224    12359.617 
   29550     294.7091    251.99158    -3066.386   -2628.0285   -514.73342    12355.212 
   29600    282.29487    251.70191   -3056.7304   -2636.8381   -8.7019377    12350.364 
   29650    278.74246     251.5277   -3050.9233    -2636.315    224.03829     12345.34 
   29700    286.20462    251.84578   -3061.5259   -2635.8182   -50.914278    12340.258 
   29750    297.59982    252.20845   -3073.6151   -2630.9579    -460.1911    12334.979 
   29800    293.04219     252.0564   -3068.5466   -2632.6686   -290.58238    12329.293 
   29850    277.84378     251.5701   -3052.3366    -2639.065    294.88008    12323.306 
   29900    301.87444    252.43644   -3081.2148   -2632.1994   -405.39744    12317.252 
   29950     307.1028    252.60544   -3086.8481    -2630.056   -478.71851    12310.822 
   30000    283.20846    251.70752   -3056.9173   -2635.6662    391.28803    12304.008 
   30050    298.04209    257.33394   -3077.7979   -2634.4828   -65.854321    12297.174 
   30100    289.50438    257.01908   -3067.3028    -2636.687    308.28013    12290.197 
   30150    280.05128    256.67775   -3055.9252   -2639.3701    730.07934    12283.234 
   30200    294.74899    257.25646   -3075.2155   -2636.7987    245.23419    12276.484 
   30250    300.89608    257.59138   -3086.3794   -2638.8193  -0.13199491     12269.73 
   30300    289.22094    257.08963   -3069.6542     -2639.46    473.79375     12262.86 
   30350    294.28813    257.22593   -3074.1978   -2636.4665    400.82118    12256.061 
   30400    303.91604     257.5999   -3086.6633   -2634.6112    240.84885    12249.314 
   30450      289.412    257.07625   -3069.2084     -2638.73    876.86221    12242.601 
   30500    297.55701    257.44867   -3081.6222   -2639.0287    612.73713    12236.176 
   30550    296.04081    257.30911   -3076.9703   -2636.6321    711.36886    12229.957 
   30600    288.27107     256.9716   -3065.7199   -2636.9385    1044.3959    12223.998 
   30650    304.91368    257.60995   -3086.9984   -2633.4624    574.83711    12218.412 
   30700    308.62214    257.82872   -3094.2907   -2635.2387    451.53396    12213.011 
   30750    309.49578    257.84152   -3094.7172   -2634.3657     534.9064    12207.711 
   30800    287.00757    256.92463   -3064.1543   -2637.2523     1451.203    12202.598 
   30850    284.58361    256.88004   -3062.6678   -2639.3713    1610.0667    12198.081 
   30900     293.1464    257.16173   -3072.0575   -2636.0245    1351.3155     12194.29 
   30950     302.7854    257.54642   -3084.8806   -2634.5103    1099.6349    12191.093 
   31000    299.94309    257.45686   -3081.8952   -2635.7526    1230.5983    12188.386 
   31050    300.38679    257.46892   -3082.2973   -2635.4947     1214.191    12186.211 
   31100    299.81826    257.39064    -3079.688   -2633.7311    1242.5161    12184.562 
   31150    297.59207    257.29989    -3076.663   -2634.0173    1325.6572    12183.459 
   31200    300.79011    257.30918   -3076.9725     -2629.57    1222.8252    12182.951 
   31250    309.36018    257.49966   -3083.3219   -2623.1721    971.84943    12182.962 
   31300    303.69178    257.28801   -3076.2669   -2624.5484    1353.8162     12183.41 
   31350    309.97464    257.60164   -3086.7214   -2625.6576    1274.4378    12184.449 
   31400    309.24743    257.58827   -3086.2758   -2626.2937    1232.2169    12186.067 
   31450     302.0487    257.25795   -3075.2651   -2625.9906    1424.2369    12188.236 
   31500    305.28775    257.40696    -3080.232   -2626.1396    1283.4846    12191.042 
   31550     304.1836    257.29512   -3076.5039   -2624.0538    1361.0916    12194.451 
   31600    295.88755    256.88966   -3062.9886   -2622.8783    1583.2593    12198.506 
   31650    312.07435    257.47057   -3082.3522   -2618.1653    945.71365    12203.249 
   31700     306.1803    257.20293   -3073.4309   -2618.0109    1089.6364     12208.44 
   31750    296.50464    256.84459   -3061.4864   -2620.4582     1305.624     12214.13 
   31800    302.37836     257.0677   -3068.9235   -2619.1586    1062.1428    12220.408 
   31850    307.64975    257.24716   -3074.9053   -2617.2996    917.23084     12227.17 
   31900    297.34859    256.87526   -3062.5087   -2620.2252    1234.3841    12234.356 
   31950    281.62819    256.29496   -3043.1652   -2624.2646    1591.7929    12242.121 
   32000     298.2622    256.88293   -3062.7642   -2619.1217    859.25983    12250.609 
   32050    315.36313    252.44411   -3081.4702   -2612.3915    249.95005    12259.489 
   32100    304.19479    252.04805   -3068.2684   -2615.8017    609.44226    12268.449 
   32150    302.77394    251.94533   -3064.8442   -2614.4909    636.88264    12277.616 
   32200    300.16504    251.71814   -3057.2713   -2610.7986    628.48037    12287.034 
   32250    314.41572    252.29095   -3076.3649   -2608.6953    21.936939    12296.638 
   32300    302.15197    251.68446   -3056.1487   -2606.7205    395.29008    12306.207 
   32350    301.27791    251.60212    -3053.404    -2605.276    456.14471    12315.863 
   32400    303.10873    251.76126   -3058.7087   -2607.8574    364.94176    12325.667 
   32450    308.85762    251.93633   -3064.5445   -2605.1421    147.53789    12335.548 
   32500    299.71341    251.52225   -3050.7416   -2604.9406    395.11892    12345.424 
   32550     293.3841    251.21143    -3040.381   -2603.9944    582.01827    12355.399 
   32600    302.51726     251.4999   -3049.9968   -2600.0253    171.74416    12365.554 
   32650    296.56211    251.28065   -3042.6883   -2601.5747    176.40374    12375.706 
   32700    302.69161    251.47697   -3049.2324   -2599.0016   -141.89474    12385.807 
   32750    301.57148    251.43107   -3047.7024   -2599.1377   -190.22816    12395.732 
   32800    304.87117    251.43571   -3047.8569   -2594.3841   -262.15968    12405.416 
   32850    291.05447    250.87189    -3029.063   -2596.1416    139.33124    12414.853 
   32900    293.80323    251.01793    -3033.931    -2596.921   -46.929599    12424.204 
   32950    298.20991    251.19284   -3039.7614   -2596.1968   -293.51842      12433.4 
   33000    295.02562     251.0046   -3033.4867   -2594.6584   -272.96453    12442.315 
   33050     299.2958    251.09207   -3036.4023   -2591.2225   -433.38789     12450.94 
   33100    297.85884    251.08684   -3036.2281   -2593.1857   -433.51324    12459.199 
   33150    305.32035    251.28162   -3042.7208   -2588.5799   -697.64112    12467.051 
   33200    296.48816    250.90706   -3030.2352   -2589.2315   -449.82034    12474.395 
   33250    288.43643    250.51189   -3017.0629   -2588.0355   -185.39769    12481.342 
   33300    304.88092    251.03529   -3034.5096   -2581.0224   -686.82994    12487.994 
   33350    311.73005    251.19748   -3039.9159    -2576.241   -834.68927    12494.141 
   33400    298.05799     250.6514   -3021.7133   -2578.3746    -384.0805      12499.7 
   33450    292.10525    250.39214   -3013.0714    -2578.587   -352.60036    12504.872 
   33500    310.39996    251.02989   -3034.3295   -2572.6331   -1090.6989    12509.659 
   33550     300.2268    250.62464   -3020.8214   -2574.2568   -730.02861     12513.73 
   33600     288.5719    250.13427   -3004.4755   -2575.2467   -253.32809    12517.249 
   33650    297.24528    250.41778   -3013.9259   -2571.7961   -502.74758     12520.44 
   33700     292.2809     250.1268   -3004.2266   -2569.4809   -346.68843    12523.217 
   33750    300.85552    250.37859   -3012.6196   -2565.1198   -698.60933    12525.622 
   33800    312.61346    250.81959   -3027.3197   -2562.3309    -1107.245     12527.48 
   33850    308.46401    250.63833   -3021.2777   -2562.4609   -910.55372    12528.596 
   33900    308.16614    250.67924   -3022.6414   -2564.2676   -854.14997    12529.012 
   33950    302.36177    250.43195   -3014.3984   -2564.6582   -595.98577    12528.793 
   34000    300.30396    250.20823   -3006.9411   -2560.2617    -387.4564    12528.078 
   34050    303.55485    250.31005   -3010.3349   -2558.8201    -408.2597    12526.954 
   34100    297.72875     249.9537   -2998.4566   -2555.6077    -96.23579    12525.454 
   34150    299.86696    250.07278   -3002.4259   -2556.3965   -114.64021    12523.728 
   34200    300.01201    250.00412   -3000.1374   -2553.8922   -36.662314    12521.795 
   34250    303.29532    250.02203   -3000.7345   -2549.6056   -69.960273    12519.673 
   34300    299.54333    249.94582   -2998.1939   -2552.6459    6.9499504    12517.356 
   34350    313.03886    250.46987   -3015.6623   -2550.0408   -464.35687    12514.847 
   34400    314.23383    250.51535   -3017.1785   -2549.7795   -533.84323    12511.943 
   34450    316.59857    250.54165    -3018.055   -2547.1386   -585.58116    12508.575 
   34500    309.36524     250.3207   -3010.6901   -2550.5327    -297.0165    12504.728 
   34550    300.82621    249.98699   -2999.5663   -2552.1101    78.802022    12500.545 
   34600    295.53105    249.76316   -2992.1055   -2552.5254    278.53263    12496.249 
   34650    304.13311    250.11145   -3003.7149   -2551.3399    74.925556    12491.916 
   34700    309.82978    250.33308   -3011.1028   -2550.2544     48.17468    12487.495 
   34750     301.9914    250.07239   -3002.4129   -2553.2236    406.65839    12482.977 
   34800    326.80893    250.96738    -3032.246   -2546.1425   -435.39686    12478.441 
   34850    317.06732    250.53237   -3017.7456    -2546.132   -174.48221    12473.561 
   34900    309.77073    250.33731   -3011.2437   -2550.4832    109.58996      12468.4 
   34950    317.30987    250.48799   -3016.2663   -2544.2919   -70.808783    12463.125 
   35000    307.50883    250.22053    -3007.351   -2549.9549    292.12493    12457.671 
   35050     309.1885      255.378   -3012.5998   -2552.7054    410.61865     12452.22 
   35100    312.86607    255.43141   -3014.3804   -2549.0158    456.19831     12446.87 
   35150    318.05096     255.6708   -3022.3601   -2549.2834    283.54005    12441.604 
   35200    321.31427    255.75356   -3025.1186    -2547.188    184.28008    12436.354 
   35250    320.78443     255.7277   -3024.2565    -2547.114    281.85715    12431.062 
   35300    322.04096     255.8041   -3026.8034   -2547.7919    312.12824    12425.772 
   35350    313.58185    255.50596   -3016.8653   -2550.4361    610.63884    12420.533 
   35400    315.15881    255.60984   -3020.3279   -2551.5531     497.6074    12415.461 
   35450    318.39139     255.8896   -3029.6534   -2556.0703    308.63368    12410.524 
   35500    315.62027     255.8366   -3027.8867   -2558.4255    455.08907    12405.627 
   35550    301.63451     255.2856   -3009.5198   -2560.8614    975.14828    12400.875 
   35600     317.9893    255.95865    -3031.955     -2558.97    511.40636    12396.455 
   35650    305.81893    255.58025   -3019.3416   -2564.4591    936.16353    12392.243 
   35700    306.01378     255.5793     -3019.31   -2564.1377    973.54183    12388.395 
   35750    311.57616    255.79479   -3026.4931   -2563.0472    789.82809     12384.95 
   35800    305.02701    255.60927   -3020.3091   -2566.6045    1051.9598    12381.823 
   35850    298.30285    255.35975   -3011.9918   -2568.2889    1267.5829    12379.147 
   35900    298.67803    255.41405   -3013.8016   -2569.5407    1103.1786    12377.018 
   35950    307.62263    255.65084   -3021.6947   -2564.1293    728.09101    12375.353 
   36000    306.99271    255.67397   -3022.4656   -2565.8372    778.20536    12373.989 
   36050    293.60399    260.18594   -3006.1981   -2569.4844    1254.0435    12372.951 
   36100    299.12074    260.58155   -3019.3851   -2574.4656    994.97777    12372.448 
   36150    298.58804    260.49312   -3016.4372   -2572.3101    1051.3765    12372.414 
   36200    301.13503    260.60168   -3020.0561   -2572.1406    1008.1147    12372.841 
   36250    295.55903    260.38217    -3012.739   -2573.1174    1131.3372    12373.754 
   36300     315.4154    261.18015   -3039.3382   -2570.1817    385.41292    12375.113 
   36350    294.92035    260.35865   -3011.9549   -2573.2832    1072.4778     12376.66 
   36400    302.16434    260.67049   -3022.3495   -2572.9029    751.86883    12378.626 
   36450    310.11262    261.04141   -3034.7138   -2573.4447    413.20369    12380.904 
   36500    303.57892    260.75241   -3025.0802   -2573.5295    727.44831     12383.34 
   36550    307.77906    260.91193   -3030.3976   -2572.5996    577.99902    12386.036 
   36600    301.98471    260.69197   -3023.0655   -2573.8861    663.55458    12388.959 
   36650    295.21772    260.49679   -3016.5598   -2577.4458    731.38961    12392.156 
   36700    297.95582    260.58965   -3019.6551   -2576.4684    591.95989     12395.63 
   36750    292.02448     260.3532   -3011.7732    -2577.409    704.91073    12399.345 
   36800    306.21249    260.87904   -3029.3012   -2573.8333     113.3767    12403.302 
   36850    310.67729     261.1073   -3036.9099    -2574.801   -157.82162    12407.221 
   36900    307.25412    261.00319   -3033.4398   -2576.4226   -70.514214    12410.948 
   36950    302.09785    260.84481   -3028.1603   -2578.8126    99.312951    12414.518 
   37000     300.4773    260.71676   -3023.8919   -2576.9547    242.79106     12418.04 
   37050    292.20833    265.43922   -3014.6406   -2580.0029    595.39762    12421.613 
   37100    287.25826    265.24808   -3008.2692   -2580.9943    782.99142    12425.406 
   37150    297.91821    265.65885   -3021.9616   -2578.8309     304.8189    12429.511 
   37200    298.85952    265.63748   -3021.2495   -2576.7186    244.57172     12433.71 
   37250    284.75888    265.04543   -3001.5145   -2577.9572    671.04763    12437.978 
   37300    302.00627    265.79889   -3026.6296   -2577.4182   -19.620776    12442.452 
   37350    300.18687    265.72369   -3024.1229   -2577.6177   -61.808315    12446.879 
   37400     299.4737    265.71579   -3023.8597   -2578.4152  -0.70739898    12451.171 
   37450    293.13492     265.4778   -3015.9267   -2579.9107     300.9035    12455.383 
   37500    288.11526    265.40906   -3013.6354   -2585.0858    398.74762    12459.659 
   37550    298.29885    265.77316    -3025.772   -2582.0751   -20.119176    12464.041 
   37600    297.89016    265.76089   -3025.3629   -2582.2739    -10.17569    12468.347 
   37650    291.45229    265.53821   -3017.9404   -2584.4272    206.26947    12472.546 
   37700    295.70011    265.68488   -3022.8294   -2582.9979   -37.137192    12476.749 
   37750    292.91232    265.59162   -3019.7205   -2584.0356   -59.233601    12480.848 
   37800    290.96374     265.5029   -3016.7634   -2583.9769   -40.773556     12484.81 
   37850    299.77483    265.78627   -3026.2089   -2580.3166   -377.59613    12488.634 
   37900    282.66284    265.04125   -3001.3749   -2580.9354    228.12096    12492.208 
   37950    285.07661    265.14817    -3004.939   -2580.9091    69.952003    12495.775 
   38000    303.30018     265.8317   -3027.7233   -2576.5872   -659.87755    12499.246 
   38050    297.92886    260.60323   -3020.1075   -2576.9609   -451.28801    12502.279 
   38100    288.85579    260.25898   -3008.6328   -2578.9817   -101.66937    12504.949 
   38150     287.7638    260.18327   -3006.1088    -2578.082   -109.23377    12507.419 
   38200    302.50998    260.76937   -3025.6457    -2575.685   -717.18646    12509.688 
   38250     303.9689    260.81593   -3027.1975   -2575.0668   -769.62107     12511.46 
   38300    297.35759    260.51538   -3017.1792   -2574.8823   -438.07567    12512.705 
   38350    287.93347    260.03436   -3001.1453   -2572.8661   -41.042196    12513.594 
   38400    292.65494    260.19775   -3006.5917   -2571.2896   -193.09362    12514.285 
   38450    294.38007    260.25049   -3008.3498   -2570.4818   -258.00922    12514.753 
   38500    298.75482     260.3608   -3012.0268   -2567.6516   -432.42142    12514.942 
   38550    306.90296    260.71046   -3023.6819    -2567.187   -796.06612    12514.741 
   38600     299.3619    260.34215   -3011.4051   -2566.1269   -506.12046    12513.997 
   38650    286.10277    259.78006   -2992.6685   -2567.1123   -23.256388    12512.872 
   38700    294.06287    260.13386   -3004.4619   -2567.0657   -246.32853    12511.559 
   38750    289.92882    260.02068   -3000.6894   -2569.4422   -59.582562    12510.005 
   38800    300.22705    260.29669   -3009.8897   -2563.3247   -298.15325    12508.272 
   38850    303.27417    260.50147   -3016.7156   -2565.6182   -370.65541    12506.261 
   38900     297.0171    260.17867   -3005.9558   -2564.1653    4.6084302    12503.934 
   38950    302.86143    260.34516   -3011.5055    -2561.022   -84.361781    12501.457 
   39000    302.18672    260.25601   -3008.5335   -2559.0537   -59.147666    12498.831 
   39050    304.30599    260.32335   -3010.7785   -2558.1464   -58.680257    12496.034 
   39100    307.21152    260.42303   -3014.1009    -2557.147   -85.035819    12493.067 
   39150    309.39086    260.36181   -3012.0603   -2551.8649   -65.231649    12489.935 
   39200    303.19378    260.10853   -3003.6178     -2552.64    340.23557    12486.642 
   39250      297.669    259.85295   -2995.0984   -2552.3383    732.27567    12483.408 
   39300    304.47522    260.11363   -3003.7875   -2550.9037    548.09392    12480.449 
   39350    312.46135    260.43604   -3014.5345    -2549.772    236.87903    12477.663 
   39400    315.53072    260.28737   -3009.5789   -2540.2508    179.06591     12474.91 
   39450     323.4283    260.52609   -3017.5363   -2536.4612    18.818214     12472.11 
   39500    306.53883    259.85624    -2995.208   -2539.2547    741.73258    12469.239 
   39550    304.30298    259.69194   -2989.7313   -2537.1037    1017.8486    12466.623 
   39600    303.27979    259.55163   -2985.0542   -2533.9485    1039.0391    12464.451 
   39650    314.06495    259.98127   -2999.3755   -2532.2277    620.09539    12462.715 
   39700    319.07869    260.10675   -3003.5582   -2528.9529    491.76705    12461.206 
   39750    309.30677    259.62573   -2987.5244    -2527.454    916.15978     12459.88 
   39800    321.85958    260.04605   -3001.5349   -2522.7932    603.89254      12458.9 
   39850    321.16572    259.95376   -2998.4588   -2520.7492    729.16323    12458.143 
   39900    308.56234    259.50347   -2983.4489   -2524.4858    1218.3991    12457.692 
   39950    323.46837    259.96897   -2998.9657    -2517.831    798.37717    12457.742 
   40000    307.31604     259.4293   -2980.9767   -2523.8674    1426.7864    12458.184 
   40050    317.98609    259.82718   -2994.2393   -2521.2591    1168.1032    12459.251 
   40100    314.71905    259.66682   -2988.8941   -2520.7734    1202.0963    12460.883 
   40150    307.84981    259.34892   -2978.2973    -2520.394    1380.6815    12463.088 
   40200    320.46829    259.81338   -2993.7792   -2517.1069    976.68602    12465.909 
   40250    310.68307    259.43707   -2981.2357   -2519.1182     1322.709     12469.21 
   40300    325.01738    260.01176   -3000.3919   -2516.9531    797.10211    12473.088 
   40350    342.12366    260.65558   -3021.8527   -2512.9697    121.00122     12477.28 
   40400    328.73682    260.15072   -3005.0238   -2516.0527    499.19695    12481.469 
   40450    316.05895    259.69663   -2989.8875   -2519.7738    897.63243    12485.822 
   40500    314.16992    259.61556   -2987.1852   -2519.8813    908.66781    12490.555 
   40550    320.63188    259.83179   -2994.3931   -2517.4775    644.42174    12495.667 
   40600    333.12724     260.2695   -3008.9833   -2513.4818    214.17576     12501.01 
   40650    316.64502    259.63481   -2987.8271   -2516.8416    721.07115    12506.423 
   40700    305.58876    259.24465   -2974.8217   -2520.2816    965.79787    12512.124 
   40750    327.31864    260.10869   -3003.6229   -2516.7613    36.213001    12518.187 
   40800    315.30128    259.63174   -2987.7246   -2518.7378     338.6884    12524.226 
   40850    308.86339    259.45487   -2981.8292   -2522.4183    521.66959    12530.321 
   40900    313.49596    259.72107   -2990.7024   -2524.4009    202.32439    12536.568 
   40950    318.61692    259.87586   -2995.8621   -2521.9436   -100.27089    12542.835 
   41000    323.13686    260.07554    -3002.518   -2521.8764   -365.77648    12548.926 
   41050    311.66523    264.61527   -2987.1755   -2523.5971    -26.77987    12554.718 
   41100    304.12201    264.41161   -2980.3871   -2528.0286    185.02327    12560.397 
   41150    307.99837    264.55656   -2985.2185   -2527.0943   -13.569618    12566.058 
   41200    295.77726    264.07019   -2969.0064   -2529.0601     208.4482    12571.642 
   41250    312.80123    264.80604   -2993.5346   -2528.2664   -485.58525    12577.181 
   41300    298.97885    264.33084   -2977.6947   -2532.9863   -158.95719    12582.412 
   41350    300.55853    264.36892   -2978.9639   -2531.9058   -267.55929     12587.41 
   41400    301.09585    264.41894   -2980.6314   -2532.7742   -328.84185    12592.156 
   41450    297.08197    264.24095   -2974.6982   -2532.8113   -128.72774    12596.633 
   41500    293.85538    264.14324   -2971.4413   -2534.3537   -42.776254    12600.932 
   41550    305.75372    264.65013   -2988.3377   -2533.5522   -532.95512     12605.06 
   41600    304.65486    264.65284   -2988.4279   -2535.2769   -657.95574     12608.81 
   41650    304.92351     264.6069   -2986.8967   -2533.3461   -682.74985    12612.069 
   41700    306.03394     264.6218   -2987.3933    -2532.191   -676.56398    12614.831 
   41750    310.81027    264.91645   -2997.2152   -2534.9084   -775.30978    12617.066 
   41800    288.75467     264.0061   -2966.8699   -2537.3692    69.379476      12618.8 
   41850    287.81421     263.9356   -2964.5201   -2536.4183    131.48824    12620.425 
   41900    297.29371    264.21631   -2973.8769   -2531.6751   -286.42257    12621.999 
   41950    305.84518    264.59047   -2986.3489   -2531.4274   -729.71112    12623.305 
   42000    309.73976    264.79458   -2993.1528   -2532.4384   -875.57151    12624.082 
   42050    295.54303    264.22878   -2974.2926   -2534.6947   -350.40909    12624.279 
   42100      296.347    264.31916   -2977.3054   -2536.5117   -431.51847    12624.137 
   42150    300.89225    264.47348   -2982.4492   -2534.8948   -546.04114    12623.626 
   42200    290.05797    264.06578   -2968.8594   -2537.4201    -154.2948    12622.721 
   42250    301.34108    264.48282   -2982.7605   -2534.5385   -513.64053     12621.56 
   42300    306.42421    264.67243   -2989.0812   -2533.2984   -717.25363    12619.998 
   42350    296.27177    264.36201   -2978.7338   -2538.0519   -457.89635    12617.941 
   42400    291.91414    264.22786   -2974.2619   -2540.0618   -309.68535    12615.487 
   42450    297.17523     264.4231     -2980.77   -2538.7444    -448.9173    12612.718 
   42500    296.64026    264.31083   -2977.0275   -2535.7976   -371.19291    12609.601 
   42550    287.14631      263.964   -2965.4668   -2538.3584   -57.941922    12606.163 
   42600    288.53131    264.06562    -2968.854   -2539.6855   -63.546437    12602.564 
   42650    303.76514    264.67863   -2989.2875   -2537.4599   -460.83328    12598.802 
   42700    307.21392    264.78596   -2992.8654    -2535.908    -492.3264    12594.676 
   42750    302.46736    264.63505   -2987.8351   -2537.9378   -297.99873    12590.156 
   42800    298.33518    264.47328   -2982.4427   -2538.6917   -79.996153    12585.351 
   42850    294.37009    264.36045   -2978.6815   -2540.8283    105.11478    12580.387 
   42900     297.5414    264.40105    -2980.035   -2537.4647    16.752476     12575.35 
   42950    303.17331    264.73975    -2991.325   -2540.3777   -208.85927    12570.195 
   43000    301.35416    264.62783   -2987.5945    -2539.353   -34.853502    12564.835 
   43050    298.75487    259.49472   -2983.1574   -2538.7821    126.10583    12559.332 
   43100    301.43069    259.53347   -2984.4491   -2536.0938    89.386409    12553.757 
   43150    310.26188    259.81074   -2993.6913   -2532.2003    -97.11683    12548.092 
   43200    308.39584    259.84262   -2994.7538   -2536.0384    27.430346    12542.249 
   43250    309.42539    259.88142   -2996.0474   -2535.8006      107.594    12536.269 
   43300    295.61293    259.34329   -2978.1096   -2538.4078    552.51965    12530.267 
   43350    308.28287    259.83576   -2994.5253   -2535.9779    81.011745    12524.391 
   43400    319.65311    260.30207   -3010.0691   -2534.6093   -299.52044    12518.419 
   43450     303.5365    259.74014   -2991.3382   -2539.8506    320.33744    12512.184 
   43500    293.79103    259.49151   -2983.0503   -2546.0584    784.19331    12505.973 
   43550    307.48379     259.9661     -2998.87   -2541.5111    402.86154    12500.039 
   43600    309.89471    260.05943   -3001.9812   -2541.0363    219.44433    12494.229 
   43650     309.7174    260.09073   -3003.0243   -2542.3431    193.62704    12488.419 
   43700    312.44692    260.13906   -3004.6353   -2539.8942    258.15173     12482.58 
   43750    304.62156    259.79666   -2993.2221   -2540.1206    606.84739    12476.782 
   43800    307.17706    259.95684   -2998.5614   -2541.6588    524.47625    12471.163 
   43850    305.04143    259.89396   -2996.4652   -2542.7392    505.22187    12465.726 
   43900    311.79225    260.19431   -3006.4771   -2542.7098    249.06352    12460.439 
   43950    309.63866    260.18591   -3006.1971   -2545.6331    436.21687    12455.174 
   44000    305.37868    260.05148    -3001.716   -2547.4884     676.4329    12450.019 
[...]
   89400     279.3177    263.62174   -2954.0581   -2538.5942   -1081.8535    12747.433 
   89450    274.60393    263.42455    -2947.485   -2539.0325   -932.53011    12742.555 
   89500    289.90904    264.00543   -2966.8478     -2535.63   -1368.1051    12736.976 
   89550    279.01991     263.5723   -2952.4102   -2537.3892   -906.05905    12730.554 
   89600     285.0354    263.78318   -2959.4394   -2535.4709   -932.87175    12723.453 
   89650    280.60754    263.52274    -2950.758   -2533.3756   -695.61679    12715.732 
   89700    289.50423    263.99574   -2966.5245   -2535.9089   -977.69079    12707.447 
   89750    281.99896    263.64186   -2954.7286   -2535.2765   -685.24353    12698.548 
   89800    294.11337    264.04034   -2968.0113   -2530.5399   -1027.6436    12689.105 
   89850    289.86229    263.99705   -2966.5682     -2535.42   -863.58091    12679.003 
   89900     285.5967    263.76611   -2958.8704   -2534.0669   -374.59825    12668.319 
   89950    285.06424    263.76818   -2958.9394   -2534.9279    -99.26665    12657.332 
   90000    293.84878    264.07091   -2969.0302   -2531.9525   -244.75109    12646.182 
   90050     292.2723    264.02919   -2967.6396   -2532.9067   -72.727481    12634.825 
   90100    287.21888    263.88886   -2962.9619   -2535.7456    205.84977    12623.355 
   90150    294.96805    264.11576   -2970.5252   -2531.7826    17.243397    12611.894 
   90200     293.4363    264.09998   -2969.9992   -2533.5349    126.57619      12600.4 
   90250    293.81626    264.00881   -2966.9604    -2529.931    376.19574    12588.898 
   90300    284.50855    263.63365    -2954.455   -2531.2701    866.11386    12577.572 
   90350    294.07694    264.02534   -2967.5112   -2530.0941     647.4512    12566.634 
   90400    306.53218    264.44031   -2981.3436   -2525.4002    303.38454    12555.983 
   90450    295.77945    264.02029   -2967.3428   -2527.3933    809.85647    12545.475 
   90500    292.04875    263.87107   -2962.3691   -2527.9687    1118.3577    12535.353 
   90550    313.75138    264.61941   -2987.3136   -2520.6322    571.13597    12525.756 
   90600    301.17067     264.1961   -2973.2034   -2525.2349    1114.1473    12516.472 
   90650    300.83095    264.21965   -2973.9885   -2526.5253    1289.7725    12507.723 
   90700    294.34712    264.01022   -2967.0073   -2529.1883    1627.7331    12499.658 
   90750    299.35418    264.21322   -2973.7739   -2528.5072    1515.5145    12492.403 
   90800    305.40416     264.3249   -2977.4967   -2523.2311    1413.0559     12485.92 
   90850    311.95962    264.59682   -2986.5607   -2522.5444    1172.3791    12480.158 
   90900    322.39759    264.95098   -2998.3661   -2518.8241      857.074    12474.975 
   90950    305.15595    264.28697   -2976.2322   -2522.3358    1537.1146    12470.235 
   91000     310.0297    264.42043   -2980.6809   -2519.5353    1452.4064    12466.213 
   91050    309.24951    264.39748    -2979.916   -2519.9308    1437.3705    12462.933 
   91100    304.59409    264.29576   -2976.5254   -2523.4648    1591.8917    12460.362 
   91150    304.89327    264.32715   -2977.5717   -2524.0661     1588.563    12458.583 
   91200    313.33932    264.66884   -2988.9613   -2522.8928    1234.0129      12457.6 
   91250    318.64681    264.87071   -2995.6905   -2521.7275    992.72029    12457.203 
   91300    310.18924    264.50674   -2983.5579   -2522.1749    1222.9802    12457.278 
   91350    303.74255    264.25968   -2975.3227   -2523.5287    1419.7737    12457.937 
   91400    314.27847    264.67402    -2989.134   -2521.6686    1019.2877    12459.248 
   91450    318.83544     264.8717   -2995.7233   -2521.4797    774.52778    12461.035 
   91500    317.06186     264.7961   -2993.2033   -2521.5978    896.94682    12463.149 
   91550    296.87089    264.00236   -2966.7455   -2525.1725    1625.8941    12465.707 
   91600    307.53231    264.38583   -2979.5278   -2522.0967    1186.4803     12469.01 
   91650    310.07896      264.463      -2982.1    -2520.881    1016.1481    12472.887 
   91700    304.80519    264.41165   -2980.3885   -2527.0138    1213.2423    12477.226 
   91750    310.32029    264.61583   -2987.1945   -2525.6166    1011.2278    12482.121 
   91800    323.75775    265.28373   -3009.4578   -2527.8927    427.53672     12487.44 
   91850    305.98938    264.50817   -2983.6057   -2528.4697    1096.2758    12492.956 
   91900    308.16715    264.57892   -2985.9639   -2527.5886    1043.7922    12498.919 
   91950    303.19722    264.44349   -2981.4498   -2530.4669    1022.1574    12505.361 
   92000    311.04237     264.7172   -2990.5732   -2527.9212    536.85983    12512.231 
   92050    315.69584    259.94843   -2998.2811   -2528.7075    197.47315     12519.29 
   92100    318.12519    260.01636   -3000.5452   -2527.3581    154.81516    12526.329 
   92150     303.1049    259.43602   -2981.2006    -2530.355    692.71259    12533.336 
   92200    294.44249     259.0895     -2969.65   -2531.6891    899.63496    12540.578 
   92250    314.80714    259.90404   -2996.8012   -2528.5494    85.030807    12548.138 
   92300    300.53461    259.35392    -2978.464   -2531.4415    483.54094    12555.684 
   92350    301.46739    259.49671   -2983.2236   -2534.8137    350.77154    12563.323 
   92400    304.90863    259.60053   -2986.6842   -2533.1557     157.9764    12571.019 
   92450    288.07337    259.00034   -2966.6781   -2538.1908    595.51117    12578.701 
   92500    293.45283    259.20242   -2973.4141   -2536.9253    290.31166    12586.528 
   92550    290.24538    259.03105   -2967.7015   -2535.9835     311.7442    12594.394 
   92600    298.67576    259.38469   -2979.4897   -2535.2321     32.13892    12602.277 
   92650    300.49666     259.4498   -2981.6599   -2534.6939   -134.28145    12610.053 
   92700    313.06241    259.90919   -2996.9731   -2531.3165   -697.16946    12617.567 
   92750    307.17462    259.78648   -2992.8826   -2535.9836   -681.37756    12624.563 
   92800    302.67963    259.50589   -2983.5298   -2533.3168   -581.38384    12631.002 
   92850    304.02574    259.49414   -2983.1381   -2530.9228   -726.62877    12636.948 
   92900    306.39847    259.60849   -2986.9496   -2531.2051   -842.85786    12642.322 
   92950     295.7583    259.28421   -2976.1402   -2536.2221   -506.18175    12647.082 
   93000    292.00344    259.16146   -2972.0487   -2537.7157   -401.50474    12651.385 
   93050    293.35962    264.25893   -2975.2978   -2538.9476   -326.00331     12655.31 
   93100    285.65657     263.9395     -2964.65   -2539.7575   -42.399238    12658.943 
   93150     305.1854    264.69181   -2989.7271   -2535.7869   -854.52722    12662.361 
   93200    293.02525    264.30774   -2976.9247   -2541.0718   -669.29563    12665.232 
   93250     297.9446     264.4886   -2982.9533   -2539.7833   -822.48278    12667.554 
   93300    283.93584    263.89669    -2963.223     -2540.89   -335.06063    12669.333 
   93350    284.24362    263.88506   -2962.8354   -2540.0445   -395.08742    12670.743 
   93400    285.24578    263.96073   -2965.3578   -2541.0763    -551.6459    12671.816 
   93450    287.60506    263.96096   -2965.3652   -2537.5745   -627.49863    12672.453 
   93500    278.53513    263.58176   -2952.7253   -2538.4254   -352.62372    12672.644 
   93550    288.93552    264.01075   -2967.0249   -2537.2552   -627.79866    12672.482 
   93600    279.95532    263.74816   -2958.2721   -2541.8598   -213.57364    12671.903 
   93650    287.38177    263.95732    -2965.244   -2537.7854   -385.49252    12671.049 
   93700    287.52627    263.88675   -2962.8916    -2535.218   -415.00254     12669.88 
   93750    292.80355    264.03216   -2967.7386   -2532.2155    -604.6619    12668.346 
   93800    302.55404    264.42414   -2980.8045   -2530.7783   -949.87452    12666.339 
   93850    299.02613    264.27912   -2975.9706   -2531.1919    -782.6517    12663.715 
   93900    303.00798    264.41484   -2980.4946   -2529.7932   -769.84216    12660.501 
   93950    296.33798    264.18376    -2972.792   -2532.0117   -404.63408    12656.772 
   94000    294.64574    264.12487   -2970.8289   -2532.5657   -221.67471    12652.707 
   94050    290.75812    263.95929   -2965.3098   -2532.8291    -95.25084    12648.405 
   94100    297.41437    264.15188   -2971.7294   -2529.3481    -261.8099    12643.924 
   94150    284.62866    263.62795   -2954.2651   -2530.9015    301.85866    12639.252 
   94200    289.55588    263.73016    -2957.672   -2526.9796     186.4998     12634.63 
   94250    309.51703    264.47326   -2982.4419   -2522.0588   -526.96879    12629.998 
   94300    312.76796    264.62955   -2987.6517    -2522.433   -557.90618    12624.993 
   94350    298.78859    264.09926   -2969.9755   -2525.5501   -27.212363    12619.595 
   94400    293.75187    263.96058   -2965.3527   -2528.4191    138.16075    12614.072 
   94450     298.0793     264.2048   -2973.4935   -2530.1231   -23.573948    12608.528 
   94500    291.72916    263.91904   -2963.9681   -2530.0431     284.4534    12602.916 
   94550    297.26256    264.09082   -2969.6941   -2527.5385    228.77066    12597.359 
   94600    304.09503    264.25473   -2975.1575   -2522.8392    139.17561    12591.841 
   94650     286.2686    263.56119   -2952.0397   -2526.2368    854.82659    12586.361 
   94700    283.28326    263.46012   -2948.6707   -2527.3083    1008.7592     12581.26 
   94750    286.00554    263.53689   -2951.2297   -2525.8181    862.85504    12576.657 
   94800    296.72543    263.99683   -2966.5609   -2525.2043    462.89733    12572.441 
   94850     307.8292    264.38961   -2979.6535   -2521.7809    213.71002    12568.394 
   94900    300.58306    263.95623   -2965.2075    -2518.113    680.29379    12564.428 
   94950    299.11946    263.95611   -2965.2038   -2520.2862    746.70326    12560.731 
   95000    306.18426    264.29574   -2976.5246   -2521.0987    475.23518    12557.346 
   95050    301.55024    264.07054   -2969.0179   -2520.4847    734.79044    12554.175 
   95100    296.17116    263.89581   -2963.1936   -2522.6615    1024.7074    12551.323 
   95150    305.29672    264.25156    -2975.052   -2520.9463    800.54869    12548.932 
   95200    299.36194    264.03649   -2967.8829   -2522.6047    1022.6274    12546.938 
   95250    302.37332     264.0907     -2969.69   -2519.9326    1036.6195    12545.417 
   95300    290.36341    263.61113   -2953.7042   -2521.8106    1464.6494    12544.423 
   95350    301.32859    264.05288   -2968.4293   -2520.2258    1048.5245    12544.113 
   95400    305.10341    264.11359   -2970.4531   -2516.6349    877.05525    12544.332 
   95450    295.01762    263.62796   -2954.2652   -2515.4489     1184.593    12544.954 
   95500    302.93345    263.97958    -2965.986   -2515.3954    868.06619    12546.092 
   95550    315.57339    264.39506   -2979.8355    -2510.444    380.78245    12547.611 
   95600    310.54972     264.2376   -2974.5867   -2512.6676     526.3387    12549.271 
   95650    300.64294    263.84832   -2961.6106    -2514.427    970.39788    12551.127 
   95700    312.29873    264.22021   -2974.0071   -2509.4864    594.60188    12553.375 
   95750    329.27963    264.91463   -2997.1543   -2507.3758    -145.2705    12555.817 
   95800    324.72369    264.83389   -2994.4629    -2511.461   -92.179595    12558.098 
   95850    308.32424    264.27654   -2975.8848   -2517.2759    476.98229    12560.242 
   95900    306.85942    264.18287   -2972.7624   -2516.3322    611.96415    12562.514 
   95950     310.1133    264.28791   -2976.2635   -2514.9935     546.0768    12565.011 
   96000    298.58057    263.77018   -2959.0059     -2514.89    929.05946    12567.738 
   96050    311.77713     264.3816   -2979.3866   -2515.6417    403.56017    12570.826 
   96100    315.82838    264.45035   -2981.6783   -2511.9075    226.32344    12574.049 
   96150    300.39902    263.87039   -2962.3463   -2515.5255    684.11043    12577.312 
   96200    306.92347    264.10557   -2970.1856   -2513.6602    459.25622     12580.82 
   96250    315.12917    264.46324   -2982.1078   -2513.3771    182.85101    12584.471 
   96300    301.30048    263.86655   -2962.2182   -2514.0566    688.85473    12588.154 
   96350    297.61898    263.74017   -2958.0055   -2515.3198     791.3859    12592.083 
   96400     293.4182    263.62768   -2954.2559   -2517.8186    753.86805     12596.35 
   96450    306.07592    264.16728   -2972.2425   -2516.9778    166.22445    12600.898 
   96500    303.79171    264.04544   -2968.1812    -2516.314    134.41616    12605.452 
   96550     307.4567     264.2484   -2974.9465    -2517.628   -105.65702    12609.941 
   96600    305.40609    264.14044   -2971.3482   -2517.0797   -61.059683    12614.259 
   96650    293.80538    263.72897   -2957.6322    -2520.619    282.70374    12618.429 
   96700    299.64981    263.99311    -2966.437   -2520.7306    43.456994    12622.602 
   96750    309.77712    264.29087   -2976.3623   -2515.5923   -256.40642    12626.672 
   96800    299.85478    263.99114   -2966.3713     -2520.36    36.436797    12630.504 
   96850    308.14717    264.35181   -2978.3936    -2520.048   -229.82278    12634.185 
   96900     308.0387    264.25286   -2975.0954   -2516.9111   -245.09405    12637.635 
   96950    308.85593    264.34474    -2978.158   -2518.7582   -354.63427    12640.815 
   97000    294.33251    263.77118   -2959.0393    -2521.242    51.715562    12643.704 
   97050    293.01863     263.7896   -2959.6532   -2523.8102   -41.593598    12646.467 
   97100     297.2848    264.00081   -2966.6935   -2524.5049   -307.06344    12649.095 
   97150     295.1598    263.89659   -2963.2196   -2524.1918   -266.31219     12651.44 
   97200    298.52903    264.01829   -2967.2762   -2523.2369   -436.72312    12653.491 
   97250    295.74462    263.94081   -2964.6938   -2524.7961   -421.32359    12655.173 
   97300    298.34941    264.08945   -2969.6483   -2525.8762   -478.63475    12656.485 
   97350    295.85076    263.96187   -2965.3958   -2525.3402     -244.705    12657.424 
   97400    287.93116    263.71876   -2957.2918   -2529.0161   -19.954138    12658.099 
   97450    300.40869    264.15202   -2971.7339   -2524.8987    -445.8748    12658.604 
   97500    272.35171    263.02979   -2934.3264   -2529.2239     497.0939     12658.83 
   97550    282.99671    263.42834   -2947.6114   -2526.6752    121.66534     12659.15 
   97600    310.49639    264.53044   -2984.3479    -2522.508   -849.69147    12659.405 
   97650    300.21521    264.17398   -2972.4662   -2525.9188   -439.38116    12659.133 
   97700    293.95026    263.93695    -2964.565   -2527.3362   -162.38511    12658.485 
   97750    302.56729    264.25232   -2975.0774   -2525.0315   -432.61019    12657.611 
   97800    296.47982    263.99438   -2966.4795   -2525.4882   -190.79861    12656.402 
   97850    295.80622     263.9376   -2964.5866   -2524.5973   -136.55011    12654.945 
   97900    288.70245    263.56836   -2952.2787   -2522.8557    1.3869538     12653.32 
   97950      301.554    264.13909   -2971.3029   -2522.7642   -493.71905    12651.538 
   98000    284.25465    263.49528   -2949.8428   -2527.0355    124.07982     12649.44 
   98050    279.52987    263.32702    -2944.234   -2528.4545    353.09494    12647.287 
   98100    286.32538    263.56757   -2952.2522   -2526.3649    131.58984    12645.236 
   98150    294.46028    263.81186   -2960.3954   -2522.4081   -155.58467    12643.166 
   98200    300.86365     264.0711   -2969.0368   -2521.5249   -396.96512    12640.895 
   98250    293.25071    263.74915    -2958.305   -2522.1168   -27.171822    12638.316 
   98300    290.88848    263.58532   -2952.8439   -2520.1694    259.96184    12635.603 
   98350    286.20943    263.46355   -2948.7851   -2523.0703    525.89932    12632.944 
   98400    290.78057    263.60025   -2953.3417   -2520.8276    344.92264    12630.456 
   98450    298.59623      263.946   -2964.8667   -2520.7275    42.657202     12628.06 
   98500    304.45171    264.19955   -2973.3183   -2520.4694   -94.895057    12625.591 
   98550    302.60471     264.1397   -2971.3232   -2521.2216   -39.998845    12622.982 
   98600     302.3859    264.09778   -2969.9261     -2520.15    103.56147    12620.227 
   98650    290.55023    263.67886   -2955.9621   -2523.7907    578.70251    12617.463 
   98700    307.41006    264.26334   -2975.4446   -2518.1954    13.292163    12614.876 
   98750    322.50115    264.79325   -2993.1082   -2513.4122   -462.85208    12612.175 
   98800    301.62197    263.97912   -2965.9706   -2517.3308    282.03899    12609.179 
   98850    296.42548    263.79058   -2959.6861   -2518.7756    462.91646    12606.207 
   98900    300.40745    263.99746    -2966.582   -2519.7487    303.30977    12603.389 
   98950    306.03041    264.15091   -2971.6971      -2516.5     192.4709     12600.64 
   99000     303.1009    264.08747   -2969.5823   -2518.7427    424.74732    12597.919 
   99050     299.9234    258.95788   -2965.2628   -2519.1495    728.52881    12595.339 
   99100    301.01861    258.96545   -2965.5149   -2517.7725    678.91522    12593.045 
   99150    310.87152    259.31924   -2977.3079   -2514.9101    235.58105     12590.99 
   99200    314.90637    259.41127   -2980.3756   -2511.9762    18.716975     12588.98 
   99250    319.74205    259.56911    -2985.637   -2510.0449   -211.78756    12586.859 
   99300    320.58113    259.69534   -2989.8445   -2513.0044   -242.74794    12584.487 
   99350    310.24831    259.36653   -2978.8844   -2517.4136    94.890197    12581.875 
   99400    303.90018    259.20089   -2973.3631   -2521.3346    252.03766    12579.192 
   99450    299.29756     259.1271   -2970.9032   -2525.7207     362.2469    12576.543 
   99500    295.84303    258.92768    -2964.256   -2524.2119    554.58997    12573.987 
   99550    315.00516    259.54938   -2984.9795   -2516.4332    75.284428    12571.583 
   99600    316.69571     259.7224   -2990.7466   -2519.6858    12.606005     12569.11 
   99650     314.4465    259.55694   -2985.2313   -2517.5159    117.05454    12566.525 
   99700    321.06659    259.86097   -2995.3658   -2517.8036   -187.84569    12563.859 
   99750    312.09817     259.5233   -2984.1101   -2519.8877    51.601584    12560.999 
   99800     323.3026    259.90209   -2996.7364   -2515.8483   -261.40488    12558.001 
   99850    311.20134    259.51163   -2983.7208   -2520.8324    208.87222    12554.784 
   99900    297.97423    259.06394    -2968.798   -2525.5839    825.55095     12551.57 
   99950    290.55915    258.81924   -2960.6413   -2528.4566    1091.3825    12548.702 
  100000    291.81293    258.84809    -2961.603   -2527.5534    848.08011    12546.342 
Loop time of 27.0946 on 1 procs for 100000 steps with 500 atoms

Performance: 318.883 ns/day, 0.075 hours/ns, 3690.776 timesteps/s
98.6% CPU use with 1 MPI tasks x 1 OpenMP threads

MPI task timing breakdown:
Section |  min time  |  avg time  |  max time  |%varavg| %total
---------------------------------------------------------------
Pair    | 21.847     | 21.847     | 21.847     |   0.0 | 80.63
Bond    | 0.0076389  | 0.0076389  | 0.0076389  |   0.0 |  0.03
Neigh   | 0.55297    | 0.55297    | 0.55297    |   0.0 |  2.04
Comm    | 0.78437    | 0.78437    | 0.78437    |   0.0 |  2.89
Output  | 0.018513   | 0.018513   | 0.018513   |   0.0 |  0.07
Modify  | 2.7589     | 2.7589     | 2.7589     |   0.0 | 10.18
Other   |            | 1.125      |            |       |  4.15

Nlocal:    500 ave 500 max 500 min
Histogram: 1 0 0 0 0 0 0 0 0 0
Nghost:    1583 ave 1583 max 1583 min
Histogram: 1 0 0 0 0 0 0 0 0 0
Neighs:    14269 ave 14269 max 14269 min
Histogram: 1 0 0 0 0 0 0 0 0 0

Total # of neighbors = 14269
Ave neighs/atom = 28.538
Ave special neighs/atom = 0
Neighbor list builds = 662
Dangerous builds = 0

write_data      ${walker}/final_restart_file
write_data      15/final_restart_file

quit
