LAMMPS (19 May 2017)
Processor partition = 15
  using 1 OpenMP thread(s) per MPI task
# gREM variables
variable        lambda world 1000 1005 1010 1015 1020 1025 1030 1035 1040 1045 1050 1055 1060 1065 1070 1075
variable        walker world 0 1 2 3 4 5 6 7 8 9 10 11 12 13 14 15
variable        replica world 1 0 3 9 12 2 5 13 10 4 7 14 6 15 8 11

variable        T0 equal 300.0
variable        press equal 0.0

units           real
atom_style      full
pair_style      lj/cut 5.0

# LJ particles
read_data       ${walker}/restart_file
read_data       15/restart_file
  orthogonal box = (0.999328 0.999328 0.999328) to (24.0007 24.0007 24.0007)
  1 by 1 by 1 MPI processor grid
  reading atoms ...
  500 atoms
  reading velocities ...
  500 velocities
  0 = max # of 1-2 neighbors
  0 = max # of 1-3 neighbors
  0 = max # of 1-4 neighbors
  1 = max # of special neighbors

#dump            dump all xyz 1000 ${walker}/dump.xyz

fix             fxnpt all npt temp ${T0} ${T0} 1000.0 iso ${press} ${press} 10000.0
fix             fxnpt all npt temp 300 ${T0} 1000.0 iso ${press} ${press} 10000.0
fix             fxnpt all npt temp 300 300 1000.0 iso ${press} ${press} 10000.0
fix             fxnpt all npt temp 300 300 1000.0 iso 0 ${press} 10000.0
fix             fxnpt all npt temp 300 300 1000.0 iso 0 0 10000.0
fix             fxgREM all grem ${lambda} -.03 -30000 fxnpt
fix             fxgREM all grem 1075 -.03 -30000 fxnpt
thermo_modify   press fxgREM_press

thermo          50
thermo_style    custom step temp f_fxgREM pe etotal press vol
WARNING: New thermo_style command, previous thermo_modify settings will be lost (../output.cpp:705)
timestep        1.0

temper/grem     100000 1000 ${lambda} fxgREM fxnpt 10294 98392 ${walker}
temper/grem     100000 1000 1075 fxgREM fxnpt 10294 98392 ${walker}
temper/grem     100000 1000 1075 fxgREM fxnpt 10294 98392 15
Neighbor list info ...
  update every 1 steps, delay 10 steps, check yes
  max neighbors/atom: 2000, page size: 100000
  master list distance cutoff = 7
  ghost atom cutoff = 7
  binsize = 3.5, bins = 7 7 7
  1 neighbor lists, perpetual/occasional/extra = 1 0 0
  (1) pair lj/cut, perpetual
      attributes: half, newton on
      pair build: half/bin/newton
      stencil: half/bin/3d/newton
      bin: standard
Per MPI rank memory allocation (min/avg/max) = 5.721 | 5.721 | 5.721 Mbytes
Step Temp f_fxgREM PotEng TotEng Press Volume 
       0     313.7091    268.18196   -3106.0653   -2639.4468    631.21773    12169.132 
      50    279.63619    266.81081   -3060.3604   -2644.4228    1903.9431    12169.347 
     100    282.32505    266.89632   -3063.2106   -2643.2735     1844.492    12170.426 
     150    298.31034    267.54678   -3084.8927   -2641.1786    1249.6139     12172.38 
     200    282.91304    267.05152   -3068.3839   -2647.5722    1660.0021    12174.969 
     250    290.16712    267.29284   -3076.4281   -2644.8265    1317.4791    12178.322 
     300    283.60141    266.91163   -3063.7211   -2641.8855    1561.5763     12182.34 
     350    294.18014    267.34363   -3078.1212   -2640.5505    1217.6427    12187.067 
     400    296.20287     267.3659   -3078.8632   -2638.2839    1072.7886    12192.384 
     450    301.04332    267.53855   -3084.6183   -2636.8392     876.1005    12198.182 
     500    285.95336    266.86348   -3062.1161   -2636.7821    1532.0091    12204.412 
     550    276.17835    266.54766   -3051.5886   -2640.7942    1871.6088    12211.375 
     600     293.9768    267.18971   -3072.9902    -2635.722     1123.083    12219.209 
     650    290.50695    266.97157    -3065.719   -2633.6119    1039.4771    12227.609 
     700    293.86575    267.03364   -3067.7881   -2630.6851    830.33876     12236.47 
     750    289.09876    266.77145   -3059.0483   -2629.0357    1013.1063    12245.729 
     800    292.77682     266.9206     -3064.02   -2628.5367    793.85308     12255.44 
     850    298.14805    267.19102   -3073.0341   -2629.5614    446.52797    12265.472 
     900    288.19318    266.65183   -3055.0611   -2626.3956    712.99537    12275.714 
     950     294.3852    266.87146   -3062.3821   -2624.5064    454.26309    12286.214 
    1000    276.63542    266.05171   -3035.0569   -2623.5826    1015.8999    12296.934 
    1050     287.4627    266.50604   -3050.2014   -2622.6225    577.84381    12308.062 
    1100    288.91003    266.58658   -3052.8861   -2623.1543    417.33173    12319.444 
    1150    299.53762     266.8763   -3062.5435   -2617.0039   -29.105448    12330.949 
    1200    300.44073    266.81944   -3060.6479    -2613.765    -61.49818    12342.359 
    1250    292.34142    266.35264    -3045.088   -2610.2523    267.71216    12353.648 
    1300    280.01035    265.83926   -3027.9752    -2611.481    724.12418    12364.978 
    1350    286.20211    266.12743   -3037.5809   -2611.8769    409.07271    12376.569 
    1400    282.92619    265.96313   -3032.1045   -2611.2732    336.08164    12388.309 
    1450    292.98247     266.2804     -3042.68   -2606.8908   -137.68563    12400.103 
    1500    305.33069     266.5354   -3051.1801   -2597.0238   -577.65743    12411.707 
    1550    278.44972    265.44384   -3014.7946   -2600.6218    352.06765    12422.952 
    1600    286.87167    265.75651   -3025.2169    -2598.517    38.658258    12434.199 
    1650    292.70932    265.91839   -3030.6129   -2595.2299   -305.61634    12445.365 
    1700    297.09771    266.11411    -3037.137   -2595.2266   -558.58336     12456.24 
    1750    286.89169    265.63579   -3021.1931   -2594.4635   -286.91799    12466.722 
    1800    291.35875    265.65017   -3021.6723   -2588.2983   -412.73403    12476.909 
    1850    295.67208    265.66049   -3022.0164   -2582.2266    -464.8624    12486.734 
    1900    289.22818    265.41663   -3013.8876   -2583.6826   -272.92503     12496.19 
    1950    290.33634    265.48157   -3016.0524   -2584.1991   -430.18238    12505.349 
    2000    288.63474    265.37041   -3012.3471   -2583.0248    -482.7414    12514.142 
    2050    286.55367    265.24679   -3008.2265   -2581.9996   -449.22568    12522.536 
    2100     270.5542    264.64444   -2988.1481   -2585.7192    60.391355    12530.585 
    2150    285.77146    265.17751   -3005.9171   -2580.8537   -440.37877    12538.493 
    2200    297.59301    265.57329   -3019.1097   -2576.4627   -880.71842    12546.023 
    2250    282.21613      264.951   -2998.3666   -2578.5915   -423.79935    12552.973 
    2300    283.53825    265.01616   -3000.5387    -2578.797   -522.87329    12559.529 
    2350    279.11103    264.70832   -2990.2775   -2575.1209   -352.68266    12565.691 
    2400     281.5685    264.79724   -2993.2414   -2574.4296   -453.30758    12571.517 
    2450    287.60278    264.98575   -2999.5251   -2571.7378   -737.83784    12576.966 
    2500    295.83323    265.32288   -3010.7625    -2570.733   -1067.7536     12581.88 
    2550    304.72128    265.58743    -3019.581   -2566.3312   -1359.0109    12586.056 
    2600    301.27724    265.42332   -3014.1107   -2565.9836   -1280.9966    12589.337 
    2650    279.98146    264.64578   -2988.1927   -2571.7415   -638.33435      12591.8 
    2700    290.07082     265.0264     -3000.88   -2569.4216   -985.89425    12593.716 
    2750    283.94168    264.65568   -2988.5226   -2566.1808   -759.15316    12594.999 
    2800    288.84446    264.81389   -2993.7964   -2564.1621   -864.54095    12595.702 
    2850    295.63094    264.97732   -2999.2439   -2559.5153   -1065.2952    12595.799 
    2900    289.93358    264.74416   -2991.4718   -2560.2176   -803.24803    12595.187 
    2950    291.76529    264.66563   -2988.8545   -2554.8757   -732.51799    12594.005 
    3000    304.56923    265.22332    -3007.444   -2554.4203   -1048.7114    12592.272 
    3050    290.93308    259.74736   -2991.5786   -2558.8377   -521.23166    12589.873 
    3100    284.41632    259.55131   -2985.0437   -2561.9959   -308.30104    12587.037 
    3150    301.25543    260.15761   -3005.2535   -2557.1589   -941.25531     12583.86 
    3200    310.95391    260.46489   -3015.4963   -2552.9759   -1235.6215    12580.042 
    3250    293.50303    259.67302   -2989.1007   -2552.5372   -566.68277     12575.47 
    3300    320.37869     260.7867   -3026.2234   -2549.6844   -1393.1328    12570.348 
    3350    300.12274    259.95261   -2998.4204   -2552.0105   -565.41827    12564.433 
    3400    302.92814    260.01664   -3000.5547   -2549.9721   -464.86588    12558.021 
    3450    303.07457    260.01402   -3000.4675    -2549.667   -413.88872    12551.249 
    3500    301.22112    259.87957   -2995.9856    -2547.942   -242.50219    12544.142 
    3550     304.4312    260.00841   -3000.2803   -2547.4619   -285.45718    12536.776 
    3600    307.23919    260.11113   -3003.7044   -2546.7094   -288.99626    12529.145 
    3650    307.85237    260.18536   -3006.1788   -2548.2717   -156.36071    12521.258 
    3700    300.30334    259.84993   -2994.9975   -2548.3191    257.39368    12513.205 
    3750    300.43866    259.88255   -2996.0848   -2549.2051    247.33596    12505.178 
    3800    312.18856     260.3222   -3010.7401   -2546.3833   -56.361044    12497.176 
    3850     299.4383    259.79904   -2993.3014   -2547.9096    421.96208    12489.119 
    3900    325.18933    260.75587   -3025.1957   -2541.5012    -325.0684     12481.11 
    3950    313.47668    260.37618   -3012.5392   -2546.2664    233.92889    12472.913 
    4000    311.26208    260.24022   -3008.0074   -2545.0286    512.64138    12464.737 
    4050    310.38794    265.14498   -3004.8328   -2543.1543    588.23811    12456.758 
    4100    310.37246    265.18474   -3006.1579   -2544.5024    607.03519    12449.024 
    4150    299.35216    264.68123   -2989.3742   -2544.1106     1120.832    12441.589 
    4200    290.83202    264.45696   -2981.8988   -2549.3082    1439.0091      12434.7 
    4250    311.63607    265.22122   -3007.3739   -2543.8389    802.59711    12428.487 
    4300    309.47196    265.09102   -3003.0341    -2542.718    977.49948    12422.707 
    4350    301.14477    264.79004   -2993.0013   -2545.0713    1414.3385    12417.397 
    4400    300.03478    264.72256    -2990.752    -2544.473    1508.6416    12412.783 
    4450    310.99169     265.1471   -3004.9033   -2542.3268    1057.9273    12408.907 
    4500    319.78271    265.61642   -3020.5472   -2544.8946    757.46156    12405.535 
    4550    299.88126    264.82639   -2994.2131   -2548.1625    1528.5545    12402.568 
    4600    308.65604    265.18374   -3006.1248   -2547.0223    1221.7794    12400.313 
    4650    321.48155     265.6888   -3022.9601   -2544.7806    669.13292    12398.629 
    4700    319.81703    265.52774   -3017.5913   -2541.8877    793.70617    12397.258 
    4750    318.76063    265.50592   -3016.8641   -2542.7319    847.25318    12396.218 
    4800    320.91037    265.61186   -3020.3953   -2543.0654    795.57659    12395.535 
    4850    312.69312    265.31273   -3010.4244   -2545.3171    1090.9843    12395.222 
    4900    316.57624    265.57826   -3019.2752    -2548.392    834.48365    12395.373 
    4950    323.06247    265.82588   -3027.5294   -2546.9985    564.19541    12395.882 
    5000    293.93059    264.73122   -2991.0407   -2553.8412    1598.1544     12396.67 
    5050    303.35373    265.10977    -3003.659   -2552.4433    1326.8461     12398.15 
    5100    321.98749    265.88112   -3029.3707   -2550.4388    562.81944    12400.249 
    5150    312.78039    265.50298   -3016.7661    -2551.529    744.91162    12402.615 
    5200     323.3154    265.91767   -3030.5889   -2549.6817    291.54872    12405.238 
    5250    302.76738     265.2625   -3008.7502   -2558.4066    863.20301    12407.977 
    5300    296.84971    265.11089   -3003.6963   -2562.1549    1107.1512    12411.046 
    5350    297.52169    265.23523    -3007.841      -2565.3    1101.1378    12414.605 
    5400    296.12273    265.26921   -3008.9736   -2568.5135    975.54676     12418.67 
    5450    303.74808    265.60042   -3020.0141   -2568.2118    486.27004    12423.141 
    5500     301.2442    265.48844   -3016.2814   -2568.2035    401.52363    12427.793 
    5550    299.57647    265.44769   -3014.9229   -2569.3256    311.99205    12432.554 
    5600    293.83687    265.26443   -3008.8143   -2571.7542    363.82218    12437.371 
    5650    282.54267    264.82638   -2994.2126   -2573.9518      640.539    12442.293 
    5700    294.34803    265.33838   -3011.2795   -2573.4591    129.84068    12447.414 
    5750    298.93681    265.62274    -3020.758   -2576.1122   -201.19789    12452.511 
    5800    299.45721    265.63014   -3021.0046   -2575.5847   -337.28363    12457.383 
    5850    299.95308    265.74874   -3024.9581   -2578.8006   -449.98821    12461.944 
    5900    293.15141    265.40345   -3013.4482   -2577.4077   -198.13779    12466.155 
    5950    291.13993    265.35035   -3011.6785   -2578.6299   -179.69338    12470.121 
    6000    298.29397    265.77077   -3025.6923   -2582.0027   -569.09075    12473.843 
    6050    299.32303    265.79729   -3026.5764   -2581.3561   -722.05664    12477.145 
    6100     293.1013    265.62274   -3020.7581   -2584.7921   -452.89688    12479.931 
    6150    276.84394    265.04836   -3001.6119   -2589.8276    190.44945    12482.386 
    6200    296.93643    265.82576   -3027.5252   -2585.8548   -400.39119    12484.764 
    6250    290.23578     265.5193   -3017.3101   -2585.6064   -251.82853    12486.853 
    6300    299.96974    265.93902   -3031.3008   -2585.1186   -742.37861    12488.637 
    6350    295.81439    265.80077   -3026.6924    -2586.691   -667.11763    12489.928 
    6400    285.24368    265.34851   -3011.6171   -2587.3388   -302.25008    12490.739 
    6450     287.8744    265.51685   -3017.2283    -2589.037    -397.0213    12491.247 
    6500    280.85108    265.22612   -3007.5372   -2589.7925   -164.44206    12491.457 
    6550    296.95787    265.88921   -3029.6403    -2587.938   -736.58548    12491.413 
    6600    289.79681    265.67524   -3022.5079   -2591.4571   -524.42506    12490.897 
    6650    286.30107    265.45861    -3015.287   -2589.4358   -286.58538    12489.961 
    6700    282.63546    265.26422   -3008.8073   -2588.4085   -114.20387    12488.772 
    6750    295.31788    265.76827   -3025.6089    -2586.346   -566.34903    12487.385 
    6800    296.77334    265.87135   -3029.0449    -2587.617   -718.33211    12485.595 
    6850     298.5062    265.97004   -3032.3345   -2588.3292   -762.13335     12483.27 
    6900     289.9702    265.61892   -3020.6308   -2589.3221   -375.36765    12480.443 
    6950    289.36142    265.56391   -3018.7969   -2588.3937   -264.16504    12477.299 
    7000    283.39799    265.32319   -3010.7731     -2589.24   -62.615316    12473.927 
    7050    298.79474    260.87727   -3029.2423   -2584.8077   -517.35842     12470.38 
    7100    290.24781    260.45552   -3015.1839   -2583.4623   -94.527112    12466.498 
    7150    288.81804    260.43053   -3014.3511   -2584.7561    24.243991    12462.443 
    7200    303.63591    260.93945   -3031.3148   -2579.6794   -397.90692    12458.278 
    7250    302.01168    260.94585   -3031.5283   -2582.3088   -336.44332    12453.808 
    7300    298.49628    260.89544    -3029.848   -2585.8574   -191.21929    12449.037 
    7350    294.89004    260.77422   -3025.8074   -2587.1808   -56.071103    12444.076 
    7400    303.59253    261.01218   -3033.7392   -2582.1683   -293.36689     12438.96 
    7450    287.08688    260.37524   -3012.5081   -2585.4881    305.96119     12433.63 
    7500    290.70115    260.47717   -3015.9055   -2583.5096    371.72999    12428.326 
    7550    292.50629    260.58198   -3019.3995   -2584.3185    404.18671    12423.157 
    7600    303.79496    261.01871    -3033.957   -2582.0851    33.844222    12418.081 
    7650    308.66089    261.23554   -3041.1847    -2582.075   -121.04926    12412.935 
    7700    310.66754    261.13807   -3037.9356   -2575.8412   -43.731599    12407.637 
    7750    300.08295    260.78229   -3026.0763   -2579.7256    361.82833    12402.232 
    7800    312.90623    261.26902   -3042.3005   -2576.8762    45.755964    12396.885 
    7850    302.78176     260.9458   -3031.5265   -2581.1616    539.56051      12391.5 
    7900    277.86825     260.0296   -3000.9868   -2587.6788    1435.4312    12386.349 
    7950     310.6025    261.36178   -3045.3928   -2583.3951    303.75062    12381.777 
    8000    308.02447    261.22758   -3040.9193   -2582.7562    296.26631    12377.369 
    8050    310.15172    266.27195   -3042.3983   -2581.0711    256.75177     12373.01 
    8100     313.0254    266.34052    -3044.684   -2579.0824    252.29226    12368.704 
    8150    305.37343    265.89197   -3029.7322   -2575.5124    664.93414    12364.477 
    8200    305.44962    265.97502   -3032.5006   -2578.1674    664.23237    12360.497 
    8250    304.10346    265.99924    -3033.308   -2580.9772    661.10752    12356.802 
    8300    302.43729    265.93247   -3031.0822   -2581.2297    681.27398     12353.39 
    8350     302.6629    265.92938   -3030.9794   -2580.7912     687.9778    12350.269 
    8400     306.9786     266.0537   -3035.1235   -2578.5161    649.74197    12347.413 
    8450     300.0292    265.81993   -3027.3311   -2581.0604    901.51395    12344.845 
    8500    304.48149    266.04933   -3034.9776   -2582.0845     689.8792    12342.665 
    8550    316.74279    266.54627   -3051.5423   -2580.4114     275.8333    12340.768 
    8600    316.89512    266.48842    -3049.614   -2578.2565    368.15294     12338.95 
    8650    313.38074    266.36733   -3045.5776   -2579.4475    601.56553    12337.239 
    8700    293.13889    265.55823   -3018.6077   -2582.5858    1362.0209    12335.816 
    8750    293.02434    265.65081   -3021.6938   -2585.8423     1362.894    12335.004 
    8800    294.51762    265.64025   -3021.3417    -2583.269    1370.8364    12334.859 
    8850    291.27983    265.56028   -3018.6762   -2585.4195    1462.3243    12335.386 
    8900    314.05088      266.414   -3047.1332   -2580.0063    666.24711    12336.564 
    8950    316.12022    266.46747   -3048.9158   -2578.7109    679.78522    12338.053 
    9000    296.41943    265.84368   -3028.1225   -2587.2211    1370.5508    12339.837 
    9050    292.31111    265.72301   -3024.1003   -2589.3097    1466.8585     12342.24 
    9100     301.5474    266.06231   -3035.4103   -2586.8814    967.51856     12345.32 
    9150    304.76147    266.15213   -3038.4043   -2585.0947    676.68443    12348.843 
    9200    303.92284    266.09066   -3036.3555   -2584.2933    695.17019    12352.648 
    9250    300.67257    265.95881   -3031.9604   -2584.7327    802.44922    12356.745 
    9300    304.94196    266.09019   -3036.3396   -2582.7616    597.97064    12361.151 
    9350    294.62579    265.80809   -3026.9365    -2588.703    837.94875    12365.794 
    9400    294.06771    265.85305    -3028.435   -2591.0316    819.44755    12370.779 
    9450    298.81784    266.03734   -3034.5779   -2590.1091    604.09429    12376.094 
    9500    287.94011    265.62434   -3020.8113   -2592.5222    852.93465    12381.664 
    9550     290.5895    265.72207   -3024.0689    -2591.839    675.12538    12387.571 
    9600    296.74244    265.89948   -3029.9828   -2588.6009    354.26743    12393.731 
    9650    294.86582    265.90651   -3030.2172   -2591.6266    273.95094    12399.987 
    9700    296.92073    266.03161   -3034.3869   -2592.7398    161.94397     12406.27 
    9750    286.33687    265.63553   -3021.1842   -2595.2798    382.53085    12412.549 
    9800    282.09613    265.40138   -3013.3793   -2593.7827    521.59988    12418.909 
    9850    286.71773    265.55726   -3018.5754   -2592.1045    324.01158     12425.44 
    9900    295.75852     265.9605   -3032.0167   -2592.0983   -161.80986    12432.023 
    9950    292.52582     265.9724   -3032.4132   -2597.3033   -233.14334    12438.415 
   10000    283.20183    265.51005   -3017.0015   -2595.7603   -4.6966391    12444.579 
   10050    288.23208     265.7627   -3025.4233   -2596.6999   -291.16565    12450.582 
   10100    293.42019     266.0322   -3034.4065   -2597.9663   -580.31437    12456.319 
   10150    299.06933    266.33215    -3044.405    -2599.562   -834.63055    12461.617 
   10200    289.26665    266.00132   -3033.3775   -2603.1152   -538.00477    12466.334 
   10250    276.15027    265.52416   -3017.4718   -2606.7192   -216.24008    12470.639 
   10300    281.24322    265.79405   -3026.4682   -2608.1402   -504.93353    12474.677 
   10350    274.06585    265.51421   -3017.1403   -2609.4882   -345.67822    12478.351 
   10400    282.01305    265.85022   -3028.3406   -2608.8676   -672.20585    12481.685 
   10450    281.56178     265.8846   -3029.4867   -2610.6848   -657.62312    12484.548 
   10500    289.03998    266.29076   -3043.0252   -2613.1001   -961.21058    12486.906 
   10550    282.74524    266.08004   -3036.0014   -2615.4393    -895.1142    12488.635 
   10600    276.44585    265.85444   -3028.4812   -2617.2889   -758.69248    12489.738 
   10650    274.59994    265.80063   -3026.6877   -2618.2411    -725.9648    12490.309 
   10700    274.06233    265.83862   -3027.9541   -2620.3072    -728.7043    12490.366 
   10750    267.50551     265.5191   -3017.3034   -2619.4092   -497.58977    12489.925 
   10800    284.31107    266.18607   -3039.5356   -2616.6444   -1069.4997    12489.057 
   10850    280.79667    266.07494   -3035.8313   -2618.1676   -963.27742    12487.531 
   10900    281.09546    266.19052   -3039.6839   -2621.5758   -999.22015    12485.342 
   10950    278.67615    266.07673   -3035.8909   -2621.3813   -910.19286    12482.514 
   11000    274.85346    265.84841   -3028.2805   -2619.4568   -705.55487    12479.091 
   11050    274.14346    265.86529    -3028.843   -2621.0754   -674.35195    12475.167 
   11100    284.82021    266.34858   -3044.9528   -2621.3043   -1035.8506    12470.757 
   11150    284.52832     266.3478   -3044.9267   -2621.7124   -957.39109     12465.72 
   11200    278.77488    266.15491   -3038.4969   -2623.8404   -606.49877    12460.074 
   11250    279.53103    266.08929   -3036.3097   -2620.5284   -421.74002    12454.005 
   11300    270.80557    265.83716   -3027.9053   -2625.1025   -107.98795    12447.637 
   11350    273.05376    265.89142    -3029.714   -2623.5672   -192.63092    12441.112 
   11400    284.56884    266.28792   -3042.9308   -2619.6562   -509.10822    12434.408 
   11450    277.92469    266.01649   -3033.8831   -2620.4912   -181.94619    12427.391 
   11500    279.72289    266.05897   -3035.2991   -2619.2325   -137.94688    12420.182 
   11550    288.69184     266.3768   -3045.8933    -2616.486    -361.8504    12412.823 
   11600     294.7466    266.55243   -3051.7476   -2613.3344   -519.15511    12405.217 
   11650    295.17347    266.58206   -3052.7353   -2613.6871   -423.23685    12397.266 
   11700    291.46404    266.30804   -3043.6013   -2610.0706   -80.027137    12389.024 
   11750    283.35803    265.98005   -3032.6682   -2611.1946    359.02991    12380.687 
   11800     283.7266    266.02795   -3034.2649    -2612.243    492.07975    12372.482 
   11850      285.807    265.99006    -3033.002   -2607.8857    606.60018      12364.5 
   11900    299.86289    266.46312   -3048.7708   -2602.7475    254.50104    12356.777 
   11950    307.51742    266.76486   -3058.8287   -2601.4199    91.728505    12349.139 
   12000    293.94697    266.21578    -3040.526   -2603.3022    732.08503    12341.527 
   12050    292.35334    266.18534   -3039.5112   -2604.6578    903.81567    12334.236 
   12100    287.60179    265.89572   -3029.8573   -2602.0714    1255.8917      12327.4 
   12150    279.25358    265.54275   -3018.0918   -2602.7232    1655.7656    12321.229 
   12200    302.40338     266.4339   -3047.7965   -2597.9944    861.75845    12315.825 
   12250    301.13094    266.24542    -3041.514   -2593.6046    1043.4394    12310.875 
   12300      295.744    265.96414   -3032.1379   -2592.2412    1389.2747    12306.448 
   12350    321.05448    266.88819   -3062.9397   -2585.3955    557.59002    12302.645 
   12400     320.6855    266.83499   -3061.1663    -2584.171    603.44351    12299.117 
   12450    307.66807    266.29537    -3043.179   -2585.5461    1141.8276    12295.852 
   12500    296.84025    265.91116   -3030.3721   -2588.8447    1567.6914    12293.125 
   12550    296.18474    265.90401   -3030.1336   -2589.5812    1662.7391    12291.168 
   12600       301.13    266.07995   -3035.9984   -2588.0904    1566.2883    12290.029 
   12650    300.11402     265.9704   -3032.3468     -2585.95    1660.2834    12289.673 
   12700    310.60616    266.42482    -3047.494   -2585.4909    1284.1781    12290.109 
   12750     303.6626    266.04949    -3034.983   -2583.3079    1501.5448    12291.183 
   12800    304.61499    266.05322   -3035.1074   -2582.0157    1397.2659    12292.942 
   12850    311.87361    266.28838   -3042.9461   -2579.0578    1162.4699    12295.358 
   12900    311.13564    266.17051    -3039.017   -2576.2263    1299.9045    12298.311 
   12950    300.05929    265.77364   -3025.7882   -2579.4727    1635.5655    12301.877 
   13000    309.01319    266.17064   -3039.0212   -2579.3875    1154.0577    12306.169 
   13050    312.43528    266.28313   -3042.7709   -2578.0471    973.74026    12310.994 
   13100    308.05691    266.12928   -3037.6428   -2579.4315     1187.742     12316.26 
   13150    306.62121    266.09818   -3036.6061   -2580.5303    1174.9586    12322.037 
   13200    299.75371    265.77533   -3025.8443   -2579.9833    1296.0511    12328.342 
   13250    308.57688    266.13682   -3037.8941   -2578.9094    869.47504    12335.204 
   13300    319.24351    266.53999   -3051.3331   -2576.4826     434.2358    12342.403 
   13350    314.00815     266.4511   -3048.3699   -2581.3065    623.73831    12349.733 
   13400    303.23559    265.96511   -3032.1704   -2581.1305      963.723    12357.284 
   13450    293.13801    265.48078    -3016.026   -2580.0054    1142.0654    12365.226 
   13500    298.44767    265.65549   -3021.8496   -2577.9314    803.06967     12373.64 
   13550    296.78599    265.59257   -3019.7522   -2578.3056    829.94202    12382.369 
   13600    298.87919    265.56402   -3018.8005   -2574.2404    784.54418     12391.41 
   13650    308.59652     265.8587   -3028.6234   -2569.6094    341.98561    12400.722 
   13700    299.18447    265.47358   -3015.7859   -2570.7717    600.50112      12410.1 
   13750    286.81296     265.0095   -3000.3168   -2573.7042    961.45226    12419.678 
   13800    288.69716    265.05418    -3001.806   -2572.3909    812.96964    12429.616 
   13850     303.4917    265.62906   -3020.9686   -2569.5477    237.54416    12439.815 
   13900    300.03566    265.50547    -3016.849   -2570.5687    296.72049    12450.021 
   13950    294.30841    265.27003    -3009.001   -2571.2396      341.026    12460.231 
   14000    295.50132    265.33713   -3011.2378    -2571.702    135.05601     12470.45 
   14050    294.22521    265.30584   -3010.1945   -2572.5568    112.93619    12480.586 
   14100    282.34022    264.89839    -2996.613   -2576.6533    405.52275     12490.65 
   14150    287.42208    265.05085    -3001.695   -2574.1765    155.54397    12500.741 
   14200    297.89194    265.35984   -3011.9945   -2568.9028   -289.46176    12510.733 
   14250    300.91828    265.51515   -3017.1717   -2569.5785   -525.85944    12520.395 
   14300    305.70623    265.70277   -3023.4256   -2568.7108   -718.00946    12529.568 
   14350    286.55226    264.91578   -2997.1926   -2570.9679    -72.17073    12538.194 
   14400    277.56197    264.51893   -2983.9642   -2571.1118    169.28939    12546.592 
   14450    292.45132    265.05266   -3001.7552    -2566.756   -496.55497    12554.863 
   14500    290.36686    265.01539    -3000.513   -2568.6143   -609.61681    12562.713 
   14550    280.56484    264.65247   -2988.4157   -2571.0968   -323.76995    12570.074 
   14600    275.58942    264.29912   -2976.6372   -2566.7188   -99.096528    12577.094 
   14650    288.95287    264.78297   -2992.7657   -2562.9702   -480.97816    12583.863 
   14700    292.13707    264.82807   -2994.2689   -2559.7372   -584.53478    12590.221 
   14750    292.25004    264.78721   -2992.9068   -2558.2071   -570.27959    12596.081 
   14800    275.45481    264.18992   -2972.9972    -2563.279    26.474108    12601.506 
   14850    294.82299    264.79993   -2993.3309   -2554.8041    -484.8295    12606.723 
   14900    291.54593     264.5392     -2984.64   -2550.9875   -278.69368    12611.561 
   14950    283.50749    264.22811   -2974.2705   -2552.5746    43.811207    12616.085 
   15000    284.35399    264.23931   -2974.6437   -2551.6886   -46.585719    12620.472 
   15050    288.84332    264.30947   -2976.9822   -2547.3497   -276.27919    12624.689 
   15100    301.53083    264.74065    -2991.355   -2542.8507   -688.81047     12628.59 
   15150    302.76093    264.66826   -2988.9419   -2538.6079   -653.25303    12631.981 
   15200    296.22376    264.31768   -2977.2559   -2536.6455   -367.36744    12634.863 
   15250    296.56768    264.21832    -2973.944    -2532.822   -326.58545     12637.39 
   15300    291.21744    263.85865   -2961.9551   -2528.7912   -17.762422    12639.621 
   15350    298.18771    264.10132   -2970.0441   -2526.5125   -178.66489    12641.673 
   15400    302.03248    264.26356   -2975.4519   -2526.2014   -300.59041    12643.497 
   15450    300.11505    264.11453   -2970.4844   -2524.0861   -168.64948    12645.023 
   15500    305.80063    264.22681   -2974.2271   -2519.3719   -351.53601    12646.306 
   15550    303.52474     264.1224   -2970.7467   -2519.2766   -312.63008    12647.275 
   15600    306.99572    264.22242   -2974.0807   -2517.4478   -330.23354    12647.925 
   15650    295.49523    263.67691   -2955.8971   -2516.3704     188.7769    12648.307 
   15700    294.09137    263.66646   -2955.5485   -2518.1099    153.23592    12648.661 
   15750    303.24713    263.96899   -2965.6329   -2514.5758   -242.98096    12648.982 
   15800    305.24793    264.00214   -2966.7381   -2512.7049   -281.64756    12649.063 
   15850    309.17494    264.14559   -2971.5197   -2511.6454   -408.68631    12648.862 
   15900    316.95037    264.42871   -2980.9571   -2509.5174   -666.61578    12648.294 
   15950    308.28875    264.09011   -2969.6702   -2511.1141   -349.98045    12647.263 
   16000    302.88999    263.85937    -2961.979   -2511.4531   -30.942666    12645.909 
   16050    299.89974    263.72074   -2957.3579   -2511.2798    207.44203    12644.432 
   16100    296.62368    263.53203   -2951.0676   -2509.8623    376.31062    12642.976 
   16150    297.38042    263.62787   -2954.2624   -2511.9315    306.98447    12641.614 
   16200    301.85446    263.69576   -2956.5254   -2507.5398     117.1606    12640.338 
   16250    308.87294    264.05381   -2968.4604   -2509.0353   -266.17614     12639.02 
   16300    308.54221    264.03091    -2967.697   -2508.7638   -262.53249    12637.462 
   16350    313.91679    264.24221   -2974.7403   -2507.8128   -339.97472    12635.638 
   16400    308.63509    264.01785   -2967.2616   -2508.1903    1.2345838    12633.531 
   16450    305.88373    264.00906   -2966.9688     -2511.99    199.33219    12631.313 
   16500    301.56874    263.92007   -2964.0024   -2515.4417    320.09102    12629.118 
   16550    314.60415    264.39899   -2979.9662   -2512.0164   -171.37252    12626.972 
   16600    313.09139    264.29773    -2976.591   -2510.8913   -237.50269    12624.666 
   16650    304.70505    263.98724   -2966.2414   -2513.0158   -36.464097    12622.156 
   16700    312.69058    264.32945   -2977.6484   -2512.5448    -268.2514    12619.515 
   16750    297.53147    263.72833    -2957.611   -2515.0554    403.72619    12616.687 
   16800    306.42878     264.0559   -2968.5301   -2512.7405    278.81468    12613.941 
   16850    308.82762      264.126   -2970.8667    -2511.509     158.6368     12611.27 
   16900    299.72442    263.73005   -2957.6683   -2511.8509     376.7745    12608.623 
   16950    307.39248    264.15434   -2971.8114   -2514.5883   -69.676941    12606.073 
   17000    319.54348    264.65614   -2988.5379   -2513.2412   -571.27663    12603.393 
   17050    295.76979    263.72881   -2957.6269   -2517.6917    318.28659    12600.374 
   17100    304.67584    264.03283   -2967.7609   -2514.5787    204.53449    12597.377 
   17150    306.68882    264.16658   -2972.2195   -2516.0431    134.53933    12594.438 
   17200    302.69162    264.10057   -2970.0191   -2519.7882    197.10968    12591.505 
   17250    305.34468    264.28542   -2976.1806   -2522.0035   -24.619592    12588.579 
   17300     306.8619    264.36015   -2978.6718   -2522.2379   -97.220155    12585.562 
   17350    306.70611     264.4223   -2980.7433   -2524.5412   -7.3951959    12582.417 
   17400    300.60643    264.15244    -2971.748   -2524.6187    185.81267    12579.212 
   17450    310.12304    264.54541   -2984.8471   -2523.5626   -146.71293    12576.007 
   17500    309.11326    264.54282   -2984.7606    -2524.978   -96.800893    12572.668 
   17550    311.82723    264.70918   -2990.3061   -2526.4867   -188.27385    12569.184 
   17600    317.64914    264.89536    -2996.512    -2524.033   -367.37542    12565.499 
   17650    307.74514    264.47349   -2982.4497   -2524.7021    25.517542    12561.566 
   17700    310.67386    264.62115   -2987.3717   -2525.2679    38.661395     12557.55 
   17750    310.37396    264.69632   -2989.8772   -2528.2195    154.61986    12553.492 
   17800    301.53745    264.33749   -2977.9164   -2529.4023    509.43812    12549.469 
   17850    296.72029    264.17975   -2972.6583   -2531.3094    585.76715    12545.653 
   17900    294.29411     264.2173   -2973.9101   -2536.1699    507.97183    12542.101 
   17950    304.48915    264.68851    -2989.617   -2536.7125    110.54954     12538.75 
   18000    307.71886     264.8762   -2995.8733   -2538.1648      4.07928    12535.404 
   18050    307.11394    259.85472   -2995.1573   -2538.3486     38.08077    12531.981 
   18100    298.71779    259.57148    -2985.716   -2541.3959    246.85887    12528.507 
   18150    306.92306    259.98468   -2999.4892   -2542.9644   -56.718051    12525.049 
   18200     310.5923    260.24044   -3008.0145    -2546.032   -109.46339    12521.487 
   18250     308.2096    260.27072   -3009.0241   -2550.5857    2.0729447    12517.794 
   18300     310.2036    260.26226   -3008.7422   -2547.3378   -103.77418    12514.008 
   18350    299.66273    259.93042   -2997.6806    -2551.955    158.45633    12510.104 
   18400     304.3216    260.13765   -3004.5885   -2551.9332    38.317134    12506.176 
   18450    295.65804    259.88325   -2996.1083   -2556.3394    296.73276    12502.222 
   18500    301.05311    260.15003   -3005.0011   -2557.2074    26.605353    12498.324 
   18550    305.11305    260.36982   -3012.3274   -2558.4949   -206.51474    12494.352 
   18600    295.38769    259.99446   -2999.8153   -2560.4485    122.79998    12490.211 
   18650    295.92402     260.1196   -3003.9867   -2563.8222    235.78764    12486.043 
   18700      293.334    260.03357   -3001.1192   -2564.8071    442.72218    12481.944 
   18750    292.21155    259.95794    -2998.598   -2563.9555    450.13901     12478.01 
   18800    292.31167    259.99342   -2999.7807   -2564.9893     319.1128    12474.241 
   18850    303.62155    260.39841   -3013.2805   -2561.6664   -66.599074    12470.547 
   18900    300.36309    260.27409   -3009.1362   -2562.3689    175.06923    12466.764 
   18950    299.75365    260.28613   -3009.5378    -2563.677    337.28515    12462.982 
   19000     293.9959    260.16003   -3005.3343   -2568.0377    361.81752    12459.311 
   19050    312.12453    260.82034   -3027.3445   -2563.0829   -287.31932    12455.715 
   19100    308.41403    260.66807   -3022.2691   -2563.5266   -97.373008    12451.924 
   19150    295.80953    260.17788   -3005.9292    -2565.935    379.39629    12447.998 
   19200    295.82345    260.30815   -3010.2717   -2570.2567    424.83477     12444.17 
   19250    290.43156    260.04925   -3001.6417   -2569.6468    682.44364    12440.525 
   19300    296.57737    260.42378    -3014.126   -2572.9896     448.8071    12437.154 
   19350    302.22961    260.74307   -3024.7691   -2575.2255    205.95791    12433.959 
   19400    295.63324    260.46099   -3015.3662   -2575.6342    504.30974    12430.828 
   19450    286.11432     260.0871   -3002.9034   -2577.3301    866.02864    12427.903 
   19500    296.35281    260.51903    -3017.301   -2576.4987    461.09316    12425.339 
   19550    299.87046     260.6274   -3020.9135   -2574.8789    299.21175    12422.941 
   19600    302.62535    260.82032   -3027.3439   -2577.2117    262.48081    12420.614 
   19650    293.69895    260.41788   -3013.9292   -2577.0743     592.7722    12418.377 
   19700    302.12299    260.74203   -3024.7344   -2575.3493    343.77885     12416.34 
   19750    301.42781    260.74873   -3024.9578   -2576.6068    403.65743    12414.406 
   19800    292.47615    260.45815   -3015.2715   -2580.2354    675.41519    12412.623 
   19850    303.32666    260.85958   -3028.6526   -2577.4771    323.57258    12411.074 
   19900    297.06854    260.57773   -3019.2576   -2577.3906     526.0644    12409.648 
   19950    309.55006    261.08981   -3036.3271   -2575.8949    107.06672    12408.371 
   20000    301.13403    260.83563   -3027.8543   -2579.9403    375.12816    12407.081 
   20050    294.27662    260.56707   -3018.9025   -2581.1883    661.26415    12405.902 
   20100    297.50231    260.51473   -3017.1577   -2574.6455    659.01884    12404.976 
   20150    306.27898    260.93396    -3031.132   -2575.5652    353.00529    12404.289 
   20200    302.64273     260.8686   -3028.9532   -2578.7951    495.18324    12403.709 
   20250    294.55004    260.52412   -3017.4707   -2579.3498    776.83404    12403.303 
   20300    303.68468    260.89059   -3029.6864   -2577.9784    444.78974    12403.179 
   20350    295.52323    260.55857    -3018.619   -2579.0506    665.12675    12403.227 
   20400    303.92967    260.96357   -3032.1191   -2580.0467    312.06989    12403.487 
   20450    287.71751    260.32722   -3010.9073   -2582.9493     749.6858     12403.86 
   20500    301.16594    260.76827   -3025.6091   -2577.6476    309.08906    12404.454 
   20550    295.59094    260.55403   -3018.4678   -2578.7987    521.21606    12405.162 
   20600    297.22723      260.674   -3022.4667   -2580.3638    492.94086    12406.016 
   20650    294.47864    260.55631   -3018.5437    -2580.529    553.96795    12407.018 
   20700    296.05763    260.64496   -3021.4986   -2581.1353    480.38972    12408.194 
   20750    298.54778    260.71286   -3023.7619   -2579.6947    397.34216    12409.511 
   20800     301.3902    260.74291   -3024.7636   -2576.4685    300.34991    12410.917 
   20850    296.09037    260.53607   -3017.8689   -2577.4569    409.38755    12412.378 
   20900    301.77994    260.78263   -3026.0876   -2577.2128     175.7381    12413.907 
   20950    293.44786     260.4698   -3015.6599   -2579.1784    411.13672    12415.433 
   21000    294.64272    260.54504   -3018.1678   -2579.9091     342.6992    12417.045 
   21050    301.17505    255.74657   -3024.8858   -2576.9108    184.30335    12418.696 
   21100    295.53473    255.53244   -3017.7481   -2578.1626    387.46349    12420.329 
   21150    303.61507    255.91442   -3030.4806   -2578.8762    142.02761    12421.996 
   21200    289.55241    255.30084   -3010.0279   -2579.3406    633.01886    12423.645 
   21250    304.35679    255.85053   -3028.3509   -2575.6432    152.25869    12425.442 
   21300    303.79487    255.79179   -3026.3931   -2574.5213    165.49943    12427.225 
   21350    305.38428    255.85127   -3028.3758   -2574.1398    79.335862     12428.94 
   21400     312.6781    256.08956   -3036.3186   -2571.2337    -147.6514    12430.526 
   21450    295.32867    255.41564   -3013.8548   -2574.5758     414.8192    12431.929 
   21500    293.57797    255.36274   -3012.0914   -2575.4164    430.49248    12433.382 
   21550    304.01726    255.74407   -3024.8023   -2572.5997    59.556306     12434.92 
   21600    303.22845    255.71051   -3023.6836   -2572.6542    116.85506     12436.36 
   21650    306.49284     255.8043   -3026.8099    -2570.925   -113.24748    12437.696 
   21700    320.45326     256.3937   -3046.4567   -2569.8068     -723.718    12438.785 
   21750    292.61228    255.39499   -3013.1662   -2577.9276    216.06535    12439.399 
   21800    294.16929    255.38438   -3012.8127   -2575.2582    250.73534    12439.941 
   21850     311.7316    256.02909   -3034.3031    -2570.626   -434.51785    12440.456 
   21900    303.92654      255.762   -3025.3998   -2573.3321   -219.32427    12440.631 
   21950    295.12679    255.51786   -3017.2619   -2578.2831    144.60803    12440.541 
   22000    298.50938    255.68512   -3022.8372   -2578.8272    52.457511     12440.39 
   22050    300.02474    260.76267   -3025.4224   -2579.1584   -2.2182824    12440.141 
   22100    292.92712    260.48688   -3016.2292   -2580.5223    250.81334    12439.802 
   22150    301.43351    260.77632   -3025.8774   -2577.5179    85.779225    12439.456 
   22200    296.82847    260.53412   -3017.8039   -2576.2941    349.93482    12439.063 
   22250     306.0522     260.9507   -3031.6901   -2576.4607   -31.507178    12438.723 
   22300    297.80244    260.61593    -3020.531   -2577.5724    196.41059     12438.29 
   22350    287.15877    260.26377   -3008.7922   -2581.6653    598.90818    12437.854 
   22400    295.25717    260.43081   -3014.3604   -2575.1877    430.94061    12437.625 
   22450    296.14551    260.52296   -3017.4319   -2576.9379    365.41811    12437.525 
   22500    298.31516    260.66451   -3022.1505   -2578.4293    305.35674    12437.505 
   22550    297.44726    260.61748   -3020.5828   -2578.1525    327.66649    12437.541 
   22600    288.03906     260.2865   -3009.5501   -2581.1138    593.84153    12437.656 
   22650    296.65059    260.47404   -3015.8014   -2574.5561    308.83828    12437.961 
   22700    297.87039     260.6112   -3020.3734   -2577.3138      189.171     12438.32 
   22750    288.90054    260.23846   -3007.9485   -2578.2308    432.91431    12438.692 
   22800    297.09607    260.52506    -3017.502   -2575.5941    117.93131    12439.131 
   22850    293.65497    260.39526   -3013.1752   -2576.3857    268.18403    12439.539 
   22900    291.18742    260.24273   -3008.0911   -2574.9719    482.38623     12439.98 
   22950    290.19492    260.22818    -3007.606    -2575.963    561.42569    12440.569 
   23000    300.22774      260.619   -3020.6335   -2574.0675    247.67186     12441.31 
   23050    300.42616    255.64001   -3021.3336   -2574.4725    250.99204    12442.066 
   23100    292.64918    255.31002    -3010.334   -2575.0405    517.05713    12442.845 
   23150    297.16735    255.46969   -3015.6564   -2573.6425    370.66851    12443.749 
   23200    304.52213    255.72396    -3024.132   -2571.1784    142.59992    12444.723 
   23250    299.27297    255.50682   -3016.8941   -2571.7483    281.52359    12445.651 
   23300    304.02939    255.70172   -3023.3908   -2571.1701    25.163354     12446.56 
   23350    305.06915     255.7435   -3024.7834   -2571.0162   -50.972718    12447.363 
   23400    293.31334    255.28751   -3009.5838   -2573.3024    491.27105    12448.029 
   23450     287.8395    255.10169   -3003.3897   -2575.2503    766.92679    12448.811 
   23500    304.07491    255.55208   -3018.4028   -2566.1144    177.16642     12449.86 
   23550    308.21596    255.74728   -3024.9095   -2566.4616     41.88266    12450.894 
   23600    296.24017    255.28435   -3009.4784   -2568.8436     542.0852    12451.832 
   23650    293.75619    255.09502   -3003.1673   -2566.2272    662.03209    12452.923 
   23700    300.06577    255.41961   -3013.9871    -2567.662    368.49076    12454.221 
   23750    300.13054    255.29303   -3009.7677   -2563.3463    327.78103    12455.606 
   23800    303.12465    255.43917   -3014.6389    -2563.764    181.24008     12457.02 
   23850     311.7157    255.76652   -3025.5505   -2561.8971   -103.60734    12458.386 
   23900    305.90085    255.55895   -3018.6317   -2563.6273    56.022439    12459.566 
   23950    299.51129    255.27615   -3009.2051   -2563.7047    306.59781    12460.637 
   24000    294.92466    255.05787    -3001.929   -2563.2509    525.17075    12461.741 
   24050    283.15889    259.56221   -2985.4069   -2564.2295    914.53242    12463.013 
   24100    291.11728    259.91689   -2997.2297   -2564.2148    650.41676     12464.63 
   24150     296.6752    260.10083   -3003.3609    -2562.079    442.15729    12466.513 
   24200     303.5662    260.34256   -3011.4187    -2559.887    308.62041    12468.511 
   24250    290.38606    259.79247   -2993.0823    -2561.155    875.12529    12470.593 
   24300    291.76948    259.85604   -2995.2013   -2561.2163     780.3246    12473.007 
   24350     306.9133    260.42935   -3014.3115   -2557.8012    177.88954    12475.699 
   24400    317.97597    260.76145   -3025.3818   -2552.4166   -236.79521    12478.359 
   24450     319.3717    260.68976   -3022.9922    -2547.951    -226.9722    12480.767 
   24500    292.54452    259.67208   -2989.0694   -2553.9316    731.46097    12482.973 
   24550    293.63753    259.68842   -2989.6141   -2552.8505    691.59231      12485.4 
   24600    301.95818    260.09979   -3003.3262   -2554.1863    403.02124    12488.078 
   24650    286.48437    259.43819   -2981.2731   -2555.1493    1040.9349    12490.911 
   24700    297.97701    259.82501   -2994.1669   -2550.9486    694.18213    12494.149 
   24750    303.12842    259.95989    -2998.663   -2547.7824    472.87314    12497.661 
   24800    302.13872    259.97233   -2999.0775   -2549.6691    343.75095    12501.306 
   24850     305.7006    260.01783   -3000.5943   -2545.8878    136.70235    12505.001 
   24900    305.56088    259.93301    -2997.767   -2543.2684    153.73429    12508.638 
   24950    296.60741    259.67393   -2989.1308   -2547.9498    371.03597    12512.238 
   25000    310.24064    260.11826   -3003.9419   -2542.4824   -81.077834     12515.88 
   25050    306.01411    264.90674   -2996.8913   -2541.7186    45.416264    12519.387 
   25100    288.79047     264.2348   -2974.4934   -2544.9395    670.08215    12522.811 
   25150    304.70665     264.8776   -2995.9202   -2542.6921    206.91176    12526.431 
   25200    305.68615    264.85569   -2995.1896   -2540.5046    266.24507    12530.082 
   25250    297.70622     264.5501   -2985.0034    -2542.188    588.08318    12533.769 
   25300    300.48398     264.5889   -2986.2966   -2539.3495    366.45179    12537.648 
   25350    304.28179    264.79265   -2993.0883   -2540.4922    69.221633    12541.599 
   25400    300.30938    264.67163   -2989.0544   -2542.3669    193.27571      12545.5 
   25450    296.02488    264.39613   -2979.8709   -2539.5564    392.41415    12549.397 
   25500    291.02076    264.08889   -2969.6296   -2536.7583      525.571    12553.388 
   25550    299.98051     264.3517   -2978.3899   -2532.1916    215.91544    12557.542 
   25600    302.36511    264.47659   -2982.5531   -2532.8079    227.55578    12561.702 
   25650    288.02129    263.91012   -2963.6707   -2535.2609    680.08497    12565.902 
   25700    318.81797    265.09178   -3003.0592   -2528.8417   -378.72031    12570.258 
   25750    296.78357    264.13597   -2971.1991   -2529.7561    426.38188    12574.387 
   25800    285.07729    263.60008   -2953.3361   -2529.3052    910.85988    12578.618 
   25850    306.92342    264.33369   -2977.7896   -2521.2642    213.15745    12583.184 
   25900    305.69658    264.19162    -2973.054   -2518.3535    209.91769    12587.792 
   25950    304.56355    264.20014   -2973.3379   -2520.3227    179.51361    12592.383 
   26000    297.45141    263.90427   -2963.4756   -2521.0392    367.61573    12596.964 
   26050     295.9249    258.84139   -2961.3795   -2521.2137    368.92601     12601.61 
   26100    307.04001    259.24431   -2974.8105   -2518.1117      -55.298    12606.284 
   26150    307.69898    259.18869   -2972.9563   -2515.2774   -113.73066    12610.798 
   26200    305.97636    259.13361   -2971.1203   -2516.0037   -20.644309    12615.106 
   26250    299.29675    258.88128   -2962.7094   -2517.5282     305.5484    12619.277 
   26300    298.21054     258.8686   -2962.2868   -2518.7212    325.05496    12623.451 
   26350    295.11026    258.73928    -2957.976   -2519.0219    347.57187    12627.688 
   26400    314.77835    259.42129   -2980.7097   -2512.5008   -193.57497    12631.936 
   26450    301.94801    258.92763   -2964.2542   -2515.1295    219.75411    12635.977 
   26500    306.77985    258.92712   -2964.2375   -2507.9257    17.000308    12639.964 
   26550      309.786      259.089   -2969.6335   -2508.8503   -179.27109    12643.823 
   26600    292.55633    258.37556   -2945.8522   -2510.6968    377.09237     12647.49 
   26650    303.29708    258.66323   -2955.4409   -2504.3095    77.492242    12651.161 
   26700    302.31997    258.62577   -2954.1924   -2504.5144    66.271429    12654.754 
   26750    303.34262      258.689      -2956.3   -2505.1009   -24.695844    12658.236 
   26800    309.17832    258.89825    -2963.275   -2503.3957   -270.08953     12661.54 
   26850    301.39656    258.54928   -2951.6425    -2503.338   -33.557298    12664.588 
   26900    295.54612    258.23217   -2941.0723   -2501.4699    245.66809     12667.49 
   26950    306.06933    258.66986   -2955.6619    -2500.407   -116.86866    12670.354 
   27000    304.72513    258.51671    -2950.557   -2497.3015   -55.496238    12673.043 
   27050    305.23278    258.57807   -2952.6022   -2498.5916   -4.0863839    12675.542 
   27100    306.27494    258.56165    -2952.055   -2496.4942   -11.689114    12677.897 
   27150    314.33409    258.73693   -2957.8978   -2490.3497   -222.46444    12680.073 
   27200    301.05224     258.3227   -2944.0898   -2496.2975    168.60671    12682.026 
   27250    293.70498    257.99161   -2933.0536   -2496.1897    392.22895     12683.94 
   27300    315.29189    258.78667   -2959.5558    -2490.583   -403.61383     12685.87 
   27350    324.13985    259.06924   -2968.9745   -2486.8411   -737.96425    12687.449 
   27400    305.35489    258.35564   -2945.1881   -2490.9958   -47.439813    12688.515 
   27450    301.24978    258.16572   -2938.8574   -2490.7712    258.82064    12689.388 
   27500    305.57984    258.29964   -2943.3213   -2488.7944    214.27229    12690.253 
   27550     307.6507    258.49667   -2949.8889   -2492.2818    66.322562    12691.106 
   27600    312.00627    258.64008   -2954.6694   -2490.5838   -131.28312    12691.867 
   27650    308.28202    258.47003   -2949.0011    -2490.455   -60.023178    12692.439 
   27700    301.09843    258.15249   -2938.4162   -2490.5551    146.75847    12692.855 
   27750     319.3284    258.87874   -2962.6247   -2487.6479   -466.45971    12693.168 
   27800    322.72632    258.95794   -2965.2647   -2485.2338     -501.078    12693.099 
   27850    309.53409    258.50106   -2950.0355    -2489.627    5.3286755    12692.624 
   27900    309.37753    258.53965   -2951.3216    -2491.146    4.3722776    12691.998 
   27950    298.32539    258.14065   -2938.0218   -2494.2853    273.19206    12691.275 
   28000    316.40801    258.69959   -2956.6531   -2486.0202   -381.57712    12690.522 
   28050    319.38898    263.87179   -2962.3929    -2487.326   -564.94692    12689.452 
   28100    314.97216    263.72226   -2957.4088   -2488.9116   -366.49436    12687.942 
   28150    310.44184     263.5717   -2952.3901   -2490.6314   -128.83393    12686.091 
   28200     300.7254    263.15294   -2938.4312    -2491.125    383.30476    12684.072 
   28250    301.15041    263.20735   -2940.2448   -2492.3064    443.74835    12682.143 
   28300    311.43526    263.51962    -2950.654   -2487.4177    100.03655    12680.329 
   28350    307.25359    263.46903   -2948.9678   -2491.9514    50.111221    12678.507 
   28400    321.85856    263.98589   -2966.1965   -2487.4563   -456.12627    12676.567 
   28450    315.83581    263.84218   -2961.4059    -2491.624   -270.42842    12674.274 
   28500    301.58643    263.29356   -2943.1188   -2494.5318    232.96771    12671.726 
   28550    304.60572     263.3809   -2946.0299    -2492.952    206.06444    12669.183 
   28600    313.02491    263.72044   -2957.3479   -2491.7471   -45.007949    12666.651 
   28650    309.67115    263.64334   -2954.7779   -2494.1656   -31.208872    12664.018 
   28700    321.48576    264.12131   -2970.7102   -2492.5245   -538.10945    12661.214 
   28750    309.13107    263.69312   -2956.4374   -2496.6284   -203.96319    12658.029 
   28800    304.86382    263.68014   -2956.0048    -2502.543   -112.19707    12654.594 
   28850    310.45776    263.98365   -2966.1216   -2504.3392   -299.63024    12650.979 
   28900    290.45497    263.26972   -2942.3239   -2510.2942    428.50374    12647.138 
   28950    290.71344     263.3422   -2944.7399   -2512.3257    434.47731    12643.394 
   29000    314.15477    264.27383   -2975.7943   -2508.5128    -421.2557    12639.746 
   29050    302.68697    263.82333   -2960.7777   -2510.5538   -90.329289    12635.818 
   29100     303.0605    263.97439   -2965.8129   -2515.0333   -187.60182    12631.699 
   29150    303.12582    264.04321    -2968.107   -2517.2303   -256.78509    12627.381 
   29200    304.40132    264.11318   -2970.4392   -2517.6653   -153.10972    12622.792 
   29250    292.02032    263.69692   -2956.5641    -2522.206    284.64603     12618.04 
   29300    303.05832    264.21878   -2973.9593    -2523.183   -115.46906    12613.287 
   29350    297.74116    264.06075   -2968.6917   -2525.8243    127.98914    12608.408 
   29400    292.65169    263.88404   -2962.8012    -2527.504    307.46847    12603.504 
   29450    307.40429    264.49686   -2983.2288   -2525.9882   -190.30596    12598.626 
   29500    305.47757     264.4993   -2983.3101   -2528.9353    -141.9021    12593.561 
   29550    301.14125    264.43864   -2981.2878   -2533.3631   -100.75494    12588.316 
   29600    301.54592    264.51215   -2983.7384   -2535.2117    -233.2789    12582.922 
   29650    285.74677    263.88171   -2962.7237    -2537.697    444.52944    12577.338 
   29700    278.63668     263.7511   -2958.3702   -2543.9192    822.54362    12571.883 
   29750    293.42972    264.30609   -2976.8696   -2540.4151    314.28696    12566.759 
   29800    305.33008    264.81976   -2993.9919   -2539.8366   -256.58945     12561.73 
   29850     298.0663    264.60694   -2986.8978   -2543.5468   -112.76326    12556.504 
   29900    297.33515    264.68496   -2989.4987   -2547.2352    21.214278    12551.101 
   29950    292.77867     264.5148   -2983.8268   -2548.3407     363.3521    12545.629 
   30000    290.20496    264.35664   -2978.5548   -2546.8969    562.30078    12540.268 
   30050    301.51716    264.73119   -2991.0397   -2542.5558    245.35704    12535.094 
   30100    302.72946     264.8821   -2996.0698   -2545.7827    119.67757    12529.984 
   30150    302.72498    264.88285   -2996.0949   -2545.8144    73.784583    12524.847 
   30200    299.11401    264.74477   -2991.4922   -2546.5828    184.20016    12519.677 
   30250    310.21584      265.266   -3008.8668   -2547.4442   -225.02574    12514.485 
   30300    315.40772    265.50271   -3016.7569   -2547.6118   -432.38645    12509.074 
   30350    303.13212    265.02798   -3000.9327   -2550.0467    36.646588    12503.355 
   30400     290.9952    264.62007   -2987.3358   -2554.5025    533.22337    12497.576 
   30450    287.89972    264.56152    -2985.384    -2557.155    690.11333    12491.989 
   30500    283.45257    264.34782   -2978.2607   -2556.6465    869.96485    12486.702 
   30550    280.51654    264.28436   -2976.1453   -2558.8982    962.91057    12481.822 
   30600    295.32375    265.00368   -3000.1226   -2560.8509    432.29009    12477.355 
   30650    301.94354    265.28322   -3009.4408   -2560.3227    225.89003     12473.05 
   30700    298.55904    265.05342   -3001.7807   -2557.6967    397.77158    12468.809 
   30750    303.07136    265.24197   -3008.0656   -2557.2699    320.27325    12464.671 
   30800    295.30019    264.94218   -2998.0726   -2558.8359    683.36296     12460.64 
   30850    284.23707    264.55824   -2985.2747   -2562.4936    1081.5842    12456.912 
   30900    291.21749     264.8192   -2993.9732   -2560.8092    867.42989    12453.658 
   30950    300.94121    265.29858   -3009.9528   -2562.3256    543.41144    12450.786 
   31000    305.50734    265.51206   -3017.0687   -2562.6497    343.71412    12448.142 
   31050    304.67187    265.45071   -3015.0237   -2561.8474    383.35702    12445.602 
   31100    295.50102    265.13175   -3004.3917   -2564.8563    741.36693    12443.197 
   31150    299.49179    265.36287   -3012.0956   -2566.6243    547.08706    12441.086 
   31200    299.03339    265.37558   -3012.5193   -2567.7298    538.01465    12439.191 
   31250    286.41539    264.89619   -2996.5398   -2570.5186    946.16987     12437.53 
   31300     299.1912    265.39679   -3013.2263    -2568.202    435.68119    12436.252 
   31350    299.96393     265.3533   -3011.7767   -2565.6031    466.62688    12435.152 
   31400    297.77229    265.18869   -3006.2895   -2563.3758    619.82365    12434.215 
   31450    302.91754    265.44793   -3014.9309    -2564.364    397.55188    12433.496 
   31500    302.64559    265.45894    -3015.298   -2565.1356    410.99657    12432.907 
   31550    296.45667     265.1616   -3005.3867   -2564.4299     694.7845    12432.478 
   31600    303.36904    265.56296   -3018.7654    -2567.527    502.41987    12432.304 
   31650    301.36429    265.41208   -3013.7361   -2565.4795    647.99184     12432.33 
   31700    303.11106    265.55615   -3018.5382   -2567.6835    579.73131    12432.596 
   31750     290.6597    265.13255   -3004.4185   -2572.0842    916.51105    12433.104 
   31800    288.07245    265.04972   -3001.6572   -2573.1713    890.87028    12434.016 
   31850    312.33123    265.99063   -3033.0211    -2568.452   -49.370144    12435.261 
   31900      292.849    265.21748   -3007.2495   -2571.6588     546.7835    12436.467 
   31950     291.7696    265.19851   -3006.6171   -2572.6319    645.99544    12437.839 
   32000     295.8619    265.31146   -3010.3819   -2570.3098    560.86522    12439.476 
   32050    298.32018     265.3479   -3011.5968   -2567.8682     463.3294    12441.333 
   32100    307.59554    265.75702   -3025.2339   -2567.7089    57.547595    12443.313 
   32150    305.04636    265.64537   -3021.5124   -2567.7791    132.97683    12445.251 
   32200    300.14832    265.56523   -3018.8408    -2572.393      310.878    12447.161 
   32250    289.61931    265.11381   -3003.7936   -2573.0068     773.6668    12449.153 
   32300    280.73164    264.73406   -2991.1352   -2573.5682    1078.7197    12451.499 
   32350    296.47621    265.33115   -3011.0384   -2570.0525    362.34979    12454.298 
   32400    305.98922    265.69079   -3023.0262   -2567.8904   -98.290622     12457.21 
   32450    298.61986    265.40899   -3013.6329   -2569.4585    106.87108    12459.992 
   32500    294.93998    265.36039   -3012.0129    -2573.312    97.030509     12462.72 
   32550    305.23645    265.77723   -3025.9078   -2571.8917   -315.99819    12465.379 
   32600    301.74734    265.73793   -3024.5976   -2575.7713   -202.19904    12467.785 
   32650    299.19351    265.62326   -3020.7754   -2575.7477   -65.237326    12469.966 
   32700    294.01413    265.46924   -3015.6412   -2578.3174    189.07503    12472.003 
   32750    282.98354    264.98534   -2999.5113   -2578.5947    563.85939     12474.07 
   32800    290.30514    265.25582   -3008.5274   -2576.7205    131.09608    12476.295 
   32850    288.34898     265.1748   -3005.8267   -2576.9294   -15.605263    12478.518 
   32900    293.91749    265.48456   -3016.1521   -2578.9721   -283.74823     12480.61 
   32950    284.57145    265.07924   -3002.6412   -2579.3628   -18.936409    12482.466 
   33000    296.63029    265.58836   -3019.6119   -2578.3968   -448.81647    12484.153 
   33050    283.55822    265.10537   -3003.5123   -2581.7409    123.48846    12485.542 
   33100    283.85707    265.10483   -3003.4943   -2581.2784    364.11042    12486.869 
   33150     285.2883    265.18202   -3006.0674   -2581.7226    359.34744    12488.296 
   33200    285.56615    265.21944   -3007.3146   -2582.5566    232.07794    12489.815 
   33250    298.11907    265.65649   -3021.8831   -2578.4536   -301.92347     12491.34 
   33300    289.25958    265.21999    -3007.333   -2577.0813    19.289979    12492.638 
   33350    292.99117    265.34617   -3011.5391   -2575.7369   -23.319089     12493.81 
   33400    298.28557    265.56425   -3018.8084   -2575.1312    -256.3787    12494.877 
   33450    297.26604    265.56814   -3018.9379   -2576.7772   -339.85898    12495.699 
   33500    284.18717    265.04427   -3001.4757   -2578.7688    116.79507    12496.254 
   33550    280.46437    264.88329   -2996.1097   -2578.9402     231.4251    12496.749 
   33600    295.88796    265.50129   -3016.7095   -2576.5986   -371.40116    12497.234 
   33650    292.90873    265.36764   -3012.2548   -2576.5753   -263.59905    12497.446 
   33700    283.98409    265.05329   -3001.7763   -2579.3715    30.099602    12497.412 
   33750    299.16752    265.64352   -3021.4506   -2576.4616     -511.494    12497.238 
   33800    292.22302    265.29948   -3009.9826   -2575.3229   -346.21227    12496.735 
   33850    296.92911    265.50025   -3016.6751   -2575.0156   -559.40478    12495.902 
   33900    299.20117    265.60377   -3020.1256   -2575.0866   -606.42126    12494.659 
   33950    294.90312    265.48578   -3016.1926   -2577.5466   -400.50043    12492.976 
   34000    298.71138    265.52852   -3017.6174   -2573.3068   -475.35167    12490.939 
   34050    299.13815    265.57442   -3019.1473    -2574.202   -437.30321    12488.529 
   34100    284.04227    265.09344   -3003.1146   -2580.6233    151.52705    12485.795 
   34150    293.49689    265.43977   -3014.6591   -2578.1047   -28.592246    12482.992 
   34200    298.38794    265.61101   -3020.3669   -2576.5375    -90.19236    12480.077 
   34250     290.7922     265.2085   -3006.9501   -2574.4187    252.79529    12477.031 
   34300    306.76218    265.83248   -3027.7493   -2571.4639   -262.62031     12473.96 
   34350    309.75153    265.96261   -3032.0871   -2571.3551   -381.46673    12470.666 
   34400    296.50843    265.41263   -3013.7544   -2572.7206    198.63084    12467.072 
   34450     295.7704    265.28924   -3009.6412   -2569.7052    353.49178    12463.461 
   34500    303.90159    265.52145   -3017.3817   -2565.3511    156.22443    12459.927 
   34550    291.86013     265.0009   -3000.0302   -2565.9103    611.82663    12456.403 
   34600    287.30161    264.84163   -2994.7211   -2567.3817     727.1372    12453.108 
   34650    296.97331    265.16084   -3005.3615   -2563.6362    421.22887    12450.096 
   34700    303.82689    265.38314   -3012.7714    -2560.852    240.14033    12447.213 
   34750    307.91032    265.54704   -3018.2347   -2560.2414    131.25908    12444.366 
   34800    304.88502    265.32854   -3010.9515   -2557.4581    335.89896    12441.512 
   34850    315.05397    265.66726   -3022.2419    -2553.623    94.385966    12438.709 
   34900    313.59145    265.52056   -3017.3521   -2550.9086    307.12177    12435.876 
   34950    309.71235    265.34499   -3011.4997    -2550.826    607.08556     12433.09 
   35000     308.6001    265.25318   -3008.4392     -2549.42    735.02424    12430.535 
   35050     313.5597    260.42716   -3014.2385   -2547.8422    612.25809    12428.258 
   35100    310.25078    260.35887   -3011.9624   -2550.4879     717.8973    12426.201 
   35150    300.65252    259.97843    -2999.281   -2552.0832    1054.8594    12424.444 
   35200    309.87311    260.38629   -3012.8762   -2551.9634    731.51295    12423.133 
   35250    319.80614     260.6573   -3021.9101   -2546.2227    507.47705    12422.122 
   35300     308.4106    260.27124   -3009.0413   -2550.3039    819.97123    12421.311 
   35350    327.80782    261.00606   -3033.5354   -2545.9461    117.64552    12420.769 
   35400    306.65367    260.18507   -3006.1689   -2550.0448    834.55374    12420.261 
   35450    298.08434    259.85542   -2995.1806   -2551.8028    1247.4793     12420.08 
   35500    299.28214    259.82032   -2994.0106   -2548.8511    1247.1607    12420.479 
   35550    313.77899    260.31524    -3010.508   -2543.7855    730.97812    12421.428 
   35600    323.63274    260.64507   -3021.5024   -2540.1233    403.54393    12422.666 
   35650    313.64729    260.28528   -3009.5093   -2542.9828    680.74743    12424.061 
   35700     331.6257    260.94933   -3031.6445   -2538.3764     75.07206    12425.657 
   35750    316.77115    260.39324   -3013.1078   -2541.9348    632.87023    12427.244 
   35800    320.01936    260.44903   -3014.9676    -2538.963    554.00712     12429.01 
   35850    323.11386    260.61732   -3020.5773   -2539.9699    334.57105    12430.963 
   35900    314.80279    260.31281   -3010.4272   -2542.1819    666.82531    12433.009 
   35950      296.671    259.67927   -2989.3091   -2548.0335    1252.0334    12435.338 
   36000    316.40228    260.43626   -3014.5421   -2543.9177    531.89723    12438.168 
   36050    314.57089    260.40977    -3013.659   -2545.7586    479.86381    12441.223 
   36100    303.92657    259.98651   -2999.5503   -2547.4826    809.56449    12444.447 
   36150    310.65713    260.16236   -3005.4119   -2543.3329    527.97876    12447.969 
   36200    313.57337    260.32447   -3010.8156    -2544.399    350.37178    12451.664 
   36250    303.75219    260.01291   -3000.4305   -2548.6221    636.60984    12455.443 
   36300    307.75654    260.23422   -3007.8074   -2550.0428    389.35964    12459.442 
   36350    311.79353    260.40078   -3013.3592     -2549.59    86.578008    12463.548 
   36400    304.76305    260.13031   -3004.3437   -2551.0317    214.96311    12467.609 
   36450     309.7865     260.4398   -3014.6598   -2553.8759   -23.988409    12471.638 
   36500     309.7671     260.4196   -3013.9865   -2553.2314   -62.372301    12475.542 
   36550    310.30498    260.49961   -3016.6538   -2555.0987   -214.56658    12479.282 
   36600    312.41723     260.6995   -3023.3167   -2558.6198   -429.55672    12482.777 
   36650    300.22975    260.22272   -3007.4239   -2560.8549    6.7222604    12485.935 
   36700    296.84646    260.08214    -3002.738   -2561.2014    154.67656    12488.959 
   36750    304.93799    260.51777   -3017.2589   -2563.6867   -202.84687    12491.931 
   36800     299.4707    260.30244   -3010.0812   -2564.6412   -114.73801     12494.71 
   36850    302.97369    260.57288    -3019.096   -2568.4456   -397.95996    12497.284 
   36900    295.34354    260.41528   -3013.8426   -2574.5414   -297.25095    12499.537 
   36950    298.86201    260.62859    -3020.953   -2576.4184   -485.14667    12501.476 
   37000    301.19051    260.76357   -3025.4525   -2577.4544    -592.2526    12503.015 
   37050    282.28369    264.98428   -2999.4761   -2579.6005    44.216331    12504.155 
   37100    288.29129    265.34376   -3011.4586   -2582.6472   -241.67551    12505.164 
   37150    294.01212    265.55165   -3018.3884   -2581.0677   -463.19872    12505.943 
   37200    291.23923    265.44394   -3014.7979   -2581.6017   -408.94479    12506.367 
   37250    293.57741    265.60576   -3020.1921   -2583.5179   -534.15394    12506.439 
   37300    284.81002    265.28556   -3009.5188   -2585.8854   -198.38343     12506.13 
   37350    277.99433    265.03657   -3001.2188   -2587.7233    38.066405    12505.611 
   37400    285.85618    265.42859   -3014.2865   -2589.0971   -364.48553    12504.976 
   37450    280.09312    265.27062   -3009.0206   -2592.4033   -292.06608    12504.063 
   37500     289.4205    265.63345   -3021.1151    -2590.624   -553.02685    12502.852 
   37550    289.21042    265.54964   -3018.3212   -2588.1426    -478.2375    12501.257 
   37600     291.0392    265.65824   -3021.9413   -2589.0425   -553.75733    12499.282 
   37650    298.95992    265.95481   -3031.8269   -2587.1467   -821.04227    12496.883 
   37700    296.56823    265.89856   -3029.9519   -2588.8291   -725.68355    12493.931 
   37750    289.60139    265.62859    -3020.953   -2590.1929   -404.25139    12490.468 
   37800    285.47983    265.42956   -3014.3187   -2589.6891   -187.02628    12486.655 
   37850    281.35767     265.2505   -3008.3501   -2589.8519    -53.35152    12482.639 
   37900    305.65033     266.3231   -3044.1034   -2589.4717   -837.01794    12478.419 
   37950    288.55295    265.66065   -3022.0216   -2592.8209   -91.772253    12473.714 
   38000    281.78826     265.4007   -3013.3566   -2594.2179    248.87328    12468.822 
   38050    289.88579     260.6443   -3021.4767   -2590.2935    10.968749    12463.929 
   38100    294.53006    260.82397   -3027.4655   -2589.3744     -137.419    12458.931 
   38150    291.28041    260.59807   -3019.9357   -2586.6782    13.232872    12453.757 
   38200    288.96604    260.54949   -3018.3162   -2588.5011  -0.33070231    12448.458 
   38250     299.8226     260.9558   -3031.8601   -2585.8967   -384.77496    12443.018 
   38300    291.65776    260.60116   -3020.0386   -2586.2198   -11.133358    12437.277 
   38350    293.97699    260.66332   -3022.1107   -2584.8422   -36.339435    12431.388 
   38400    302.30804    261.00661   -3033.5535   -2583.8932   -318.39975    12425.337 
   38450    306.42942     261.1957   -3039.8565    -2584.066   -368.06882     12418.98 
   38500    297.03685    260.82589   -3027.5295   -2585.7097    80.622992    12412.325 
   38550    282.17902    260.28276   -3009.4255   -2589.7056    751.06802      12405.6 
   38600    285.49365    260.37751   -3012.5835   -2587.9334     779.8261    12399.146 
   38650    293.60374    260.73517   -3024.5058   -2587.7925    515.82841    12393.001 
   38700    303.68685    261.14216    -3038.072   -2586.3608    170.95272     12387.02 
   38750    301.65039    261.05245   -3035.0818   -2586.3997    308.94909    12381.032 
   38800    286.04136    260.43624   -3014.5415   -2589.0766    971.63136    12375.128 
   38850    285.84361    260.38018   -3012.6727    -2587.502    1103.6566    12369.619 
   38900    291.76274    260.62618   -3020.8728   -2586.8978    974.07677    12364.599 
   38950    305.41307      261.065      -3035.5   -2581.2212    687.48728    12360.004 
   39000    305.59043    261.04152   -3034.7172   -2580.1746    869.82091    12355.697 
   39050    309.38889    256.22464   -3040.8212   -2580.6287    818.34283    12351.735 
   39100     314.7523    256.37152   -3045.7174   -2577.5472    671.50651    12348.083 
   39150    307.29195    256.10729   -3036.9097   -2579.8362    925.72037    12344.695 
   39200    317.21052    256.49592   -3049.8641   -2578.0375    597.86328    12341.656 
   39250     313.3667    256.37127   -3045.7091   -2579.5999    796.76159    12338.832 
   39300    304.00309    255.97967   -3032.6556    -2580.474    1243.8317    12336.318 
   39350    309.41677    256.12847   -3037.6157   -2577.3817    1097.2402    12334.335 
   39400    312.73821    256.25131   -3041.7105   -2576.5361    895.52869    12332.828 
   39450    303.02342    255.85195   -3028.3984    -2577.674    1101.1261    12331.712 
   39500    322.45128     256.7149   -3057.1635   -2577.5417    420.00668    12331.004 
   39550    307.69408    256.17531    -3039.177   -2581.5054    895.52208    12330.471 
   39600    307.79631     256.1019     -3036.73   -2578.9064    946.86191    12330.249 
   39650    294.82394    255.66976   -3022.3253   -2583.7971    1375.6162     12330.45 
   39700    298.81774     255.8157   -3027.1901   -2582.7214    1321.6724    12331.249 
   39750    291.15491    255.59307   -3019.7688    -2586.698    1569.9968    12332.669 
   39800    301.33507    255.91014    -3030.338   -2582.1249    1207.1068    12334.797 
   39850    308.74886    256.31168   -3043.7226   -2584.4821    798.51163     12337.47 
   39900    319.98713    256.71969   -3057.3231   -2581.3665    451.97103    12340.447 
   39950    296.63441     255.7842     -3026.14   -2584.9188    1229.4723    12343.622 
   40000    301.39822    256.04296   -3034.7654   -2586.4584    982.84417    12347.274 
   40050    296.12292    255.84063   -3028.0209   -2587.5605    1069.5677    12351.381 
   40100    287.77725    255.54102   -3018.0339    -2589.987    1296.0981    12355.975 
   40150    303.68234    256.07937   -3035.9788   -2584.2744    693.58571    12361.127 
   40200    305.67413    256.06849   -3035.6163   -2580.9492    517.00757    12366.559 
   40250    313.23879    256.32244   -3044.0814   -2578.1624    169.24727    12372.135 
   40300    313.96515    256.45626    -3048.542   -2581.5427   -2.3534928    12377.685 
   40350    313.93615    256.44998   -3048.3327   -2581.3765   -19.967476     12383.11 
   40400    294.17329    255.76591   -3025.5304     -2587.97    639.72309    12388.442 
   40450    296.63974    255.84986   -3028.3287   -2587.0996    495.02305    12393.946 
   40500    299.17868    255.94794   -3031.5979   -2586.5923    261.33514    12399.607 
   40550    302.48696    256.00867   -3033.6222   -2583.6958    148.27478    12405.295 
   40600    301.44831    255.97191   -3032.3968   -2584.0153    45.863007    12410.945 
   40650    288.77134    255.62737   -3020.9124   -2591.3869    318.06786    12416.498 
   40700    275.64502    255.14723   -3004.9075   -2594.9064    773.85147    12422.121 
   40750    288.36748    255.62645   -3020.8818   -2591.9571    362.46916    12428.022 
   40800    293.45324    255.87354   -3029.1181   -2592.6286    131.34074    12434.011 
   40850    287.96607    255.69075   -3023.0251   -2594.6974    203.90652    12439.966 
   40900    299.68493    256.07858   -3035.9528   -2590.1942   -386.86638    12445.882 
   40950    303.47292    256.20479   -3040.1595   -2588.7665   -695.21239    12451.465 
   41000    306.97573    256.33445   -3044.4816   -2587.8784   -831.35159    12456.528 
   41050    300.14935    251.07879   -3035.9595   -2589.5101   -567.79746    12461.004 
   41100    297.40664    250.98624   -3032.8747   -2590.5049   -445.05361    12465.003 
   41150    283.55493    250.45407   -3015.1357   -2593.3693    -2.310768    12468.633 
   41200    288.19593     250.6787   -3022.6234   -2593.9538   -223.45755    12472.072 
   41250     295.2747    250.98442   -3032.8141   -2593.6154   -599.46467    12475.238 
   41300     296.3987    251.09866   -3036.6221   -2595.7515   -685.38352    12477.921 
   41350    292.02134    250.99861   -3033.2868   -2598.9272   -621.88376    12480.093 
   41400    300.30896    251.39169   -3046.3896   -2599.7028   -918.78045    12481.735 
   41450    292.68767    251.15161   -3038.3869   -2603.0362   -647.92286    12482.727 
   41500    284.17599    250.81693   -3027.2309   -2604.5406   -401.25736     12483.21 
   41550    291.99581    251.20538   -3040.1794   -2605.8577   -745.44285    12483.279 
   41600    280.85314    250.79735   -3026.5785   -2608.8307   -454.45494    12482.821 
   41650    282.75569    250.99491   -3033.1638   -2612.5861   -592.02285    12481.925 
   41700    276.86943    250.83548   -3027.8493    -2616.027   -475.68592    12480.563 
   41750    272.69179    250.68874    -3022.958   -2617.3496   -460.18235    12478.809 
   41800    296.95075    251.65839   -3055.2795   -2613.5878   -1342.1406    12476.588 
   41850    292.34963    251.60339   -3053.4463   -2618.5984   -1247.5413     12473.51 
   41900      286.578    251.36333   -3045.4442   -2619.1812   -964.98804    12469.572 
   41950    274.63338    250.97935   -3032.6449   -2624.1485   -576.51904    12464.951 
   42000    283.43557    251.37531   -3045.8436   -2624.2547   -901.29984    12459.827 
   42050    285.64165    256.47591   -3049.1971   -2624.3268   -966.20565     12454.07 
   42100    286.28534     256.6297   -3054.3235   -2628.4957   -999.53753    12447.626 
   42150     278.4836    256.34822   -3044.9408   -2630.7176   -751.24532    12440.505 
   42200    275.91316    256.35603   -3045.2009    -2634.801   -664.56914    12432.811 
   42250    271.65427    256.21568   -3040.5227   -2636.4575   -493.61171    12424.625 
   42300    282.82295    256.58862   -3052.9539   -2632.2762   -743.13194    12416.007 
   42350    270.18167    256.13326   -3037.7752   -2635.9004   -266.07896    12406.899 
   42400    276.83171    256.40275   -3046.7583   -2634.9921   -469.77354    12397.476 
   42450    287.95341    256.83878   -3061.2928   -2632.9839   -818.13097    12387.654 
   42500    282.62932    256.68733   -3056.2445   -2635.8548   -560.16109     12377.29 
   42550    287.55839    256.86968   -3062.3228   -2634.6015   -517.26934    12366.467 
   42600    276.21932    256.44216    -3048.072   -2637.2167    80.268536    12355.259 
   42650     275.8141     256.5007   -3050.0234   -2639.7708    184.80146    12343.953 
   42700    288.80942    257.02528   -3067.5094   -2637.9273   -204.39344    12332.597 
   42750    294.54266     257.2715   -3075.7168   -2637.6069   -323.64483    12321.019 
   42800    285.37487    256.97399   -3065.7997   -2641.3262    77.737855    12309.166 
   42850    285.12787    256.90251   -3063.4171    -2639.311    318.90137    12297.227 
   42900      280.702    256.65904   -3055.3013   -2637.7783     625.8771    12285.375 
   42950    296.48257    257.29504   -3076.5015   -2635.5061    153.86394    12273.707 
   43000    288.16103    257.00077   -3066.6925   -2638.0748    558.21165    12262.065 
   43050    281.90503     251.8724   -3062.4135   -2643.1011    902.83993    12250.612 
   43100    302.20162     252.6749   -3089.1632   -2639.6612    309.53292    12239.472 
   43150    297.94469    252.44063   -3081.3544   -2638.1843     548.0507    12228.434 
   43200    291.35526    252.24718   -3074.9059   -2641.5371    935.01872    12217.574 
   43250    299.89319    252.60272   -3086.7573   -2640.6889    836.02907    12207.076 
   43300    305.41614    252.69016    -3089.672   -2635.3887    828.61826    12196.936 
   43350    300.43252    252.41371    -3080.457   -2633.5864    1200.5449    12187.132 
   43400    297.20901    252.31213   -3077.0711   -2634.9952    1377.6604    12177.852 
   43450     306.2721    252.63933   -3087.9777   -2632.4211    1160.9262    12169.176 
   43500    296.66128    252.17763   -3072.5878   -2631.3266     1659.515    12161.056 
   43550    303.21636    252.39237   -3079.7458   -2628.7344     1517.482    12153.672 
   43600      310.619    252.69807   -3089.9358   -2627.9136    1335.1374    12146.979 
   43650    307.26234    252.56431   -3085.4772   -2628.4477    1619.3852    12140.899 
   43700     304.3285    252.32427   -3077.4756     -2624.81    1942.4816    12135.575 
   43750    319.21781    252.87247   -3095.7491   -2620.9368    1538.2082    12131.111 
   43800    295.60889    252.01214   -3067.0713   -2627.3754    2298.1078    12127.413 
   43850    304.64179    252.26695   -3075.5648   -2622.4333    2093.1511    12124.754 
   43900    309.58992    252.31636    -3077.212   -2616.7204    2031.6895    12123.102 
   43950    311.08495    252.45041   -3081.6802    -2618.965    2047.2687    12122.405 
   44000    318.53025       252.73        -3091   -2617.2104    1701.2214    12122.654 
[...]
   89400    297.65091    238.41056   -3113.6852    -2670.952   -384.52497    12210.035 
   89450    298.95184    238.43932   -3114.6439   -2669.9757   -465.01433    12209.909 
   89500    281.23375    237.78201   -3092.7335   -2674.4196    219.40377    12209.395 
   89550    284.36016    237.82839   -3094.2795   -2671.3153    176.76606    12208.784 
   89600    298.81549    238.38435   -3112.8115   -2668.3461    -352.3646    12208.055 
   89650    285.95856    237.92493   -3097.4978   -2672.1561    113.62329    12207.012 
   89700    274.26576    237.56862   -3085.6205    -2677.671    527.64082    12205.849 
   89750    291.13524    238.07305   -3102.4349   -2669.3933    80.632058    12204.741 
   89800    292.89665     238.0805   -3102.6832   -2667.0217    72.950488    12203.529 
   89850    301.40172    238.35758   -3111.9195   -2663.6073   -99.477825     12202.15 
   89900    294.09591    238.12145   -3104.0482   -2666.6028    183.17854    12200.544 
   89950    289.19496    237.95844   -3098.6145    -2668.459    279.65407    12198.834 
   90000    293.19011    238.08903   -3102.9675   -2666.8695    117.24605    12197.074 
   90050    290.55007    243.01658   -3100.5528   -2668.3816    242.81457    12195.198 
   90100     299.6248    243.34665   -3111.5551   -2665.8859    101.09727    12193.251 
   90150    284.37885    242.66635   -3088.8784   -2665.8864    701.66593    12191.241 
   90200    312.33608     243.7517   -3125.0565   -2660.4803   -129.12919    12189.327 
   90250    307.33736    243.58226   -3119.4088   -2662.2678    21.806023    12187.225 
   90300    295.26609    243.01706   -3100.5686   -2661.3827    424.09241    12184.967 
   90350    299.77637    243.16555   -3105.5183   -2659.6237    290.12572    12182.739 
   90400    293.70615    243.01787   -3100.5955   -2663.7299    463.96726    12180.509 
   90450    290.64662    242.81654   -3093.8846   -2661.5698    692.32003    12178.345 
   90500     287.9955    242.76264   -3092.0879   -2663.7165    848.38497    12176.382 
   90550    295.36109    243.05242   -3101.7475   -2662.4203    561.09644    12174.694 
   90600    289.54559    242.73844   -3091.2812   -2660.6041    800.79671    12173.157 
   90650    296.78714    242.88306    -3096.102   -2654.6536    711.49912    12171.854 
   90700    308.61542     243.3575   -3111.9167   -2652.8747    279.65882    12170.749 
   90750     308.9085    243.46707   -3115.5691   -2656.0912    173.09661    12169.624 
   90800    302.20276    243.13182    -3104.394   -2654.8903    449.99184    12168.444 
   90850    301.78761    243.08409    -3102.803   -2653.9168    503.50686    12167.314 
   90900    305.67159    243.24753   -3108.2509   -2653.5876    452.97335    12166.262 
   90950    295.40538    242.78169    -3092.723   -2653.3299    900.13065    12165.317 
   91000    303.27824    242.99096   -3099.6986   -2648.5952    702.06725    12164.639 
   91050    290.04657    237.54724    -3084.908   -2653.4857     1134.953    12164.204 
   91100    293.31235    237.59178   -3086.3927   -2650.1128    1174.1174    12164.182 
   91150    318.85611    238.48574   -3116.1914   -2641.9171    398.20543    12164.564 
   91200    321.78958    238.55729   -3118.5762   -2639.9386    255.42398    12165.006 
   91250    310.06002    238.09329   -3103.1095   -2641.9188    651.85916    12165.413 
   91300    306.40972    238.01356    -3100.452   -2644.6908    784.13845    12165.968 
   91350     306.9996    238.04151   -3101.3837   -2644.7451    756.52497    12166.759 
   91400    297.33691     237.6451     -3088.17   -2645.9039    1009.2838    12167.804 
   91450    325.33921    238.59384   -3119.7947   -2635.8773    107.18974    12169.143 
   91500    316.35355    238.21879   -3107.2929   -2636.7409    393.92695    12170.425 
   91550    311.10089      238.016   -3100.5334   -2637.7944    656.55226    12171.727 
   91600    318.20803     238.3199   -3110.6634   -2637.3531    474.26471    12173.173 
   91650    302.33622    237.73436   -3091.1454   -2641.4432    979.88949    12174.723 
   91700    309.31576    237.88794   -3096.2648    -2636.181     821.1602    12176.586 
   91750    307.46446    237.79682   -3093.2273   -2635.8973     773.9293    12178.756 
   91800    322.35399     238.2647   -3108.8233   -2629.3462    255.40979    12181.117 
   91850    303.32729    237.64127   -3088.0423   -2636.8659    764.29964    12183.514 
   91900    315.26997    238.13139   -3104.3798   -2635.4396    387.14601    12186.074 
   91950    297.55316    237.47164   -3082.3881   -2639.8003    867.85027    12188.731 
   92000    315.53757    238.12277   -3104.0924   -2634.7542    293.90918    12191.612 
   92050    315.04549    233.05937   -3101.9791   -2633.3728    273.59439    12194.524 
   92100    318.06467    233.29038   -3109.6792   -2636.5821    152.90765    12197.366 
   92150    301.86537    232.72064   -3090.6879    -2641.686    646.72994    12200.134 
   92200    316.99198    233.28558   -3109.5192   -2638.0177    148.41191    12202.992 
   92250    309.08482    232.88961   -3096.3205   -2636.5802    401.05588    12205.792 
   92300    295.62146    232.50902    -3083.634   -2643.9195    759.14607    12208.632 
   92350    299.41473    232.55655   -3085.2183   -2639.8616    631.23576    12211.667 
   92400    307.29331    232.96346   -3098.7821   -2641.7066    248.93642    12214.843 
   92450    308.01335    232.99055   -3099.6852   -2641.5386    158.53543    12217.995 
   92500    314.56992    233.12094   -3104.0314   -2636.1325   -75.584897    12221.015 
   92550    309.09647     233.0112   -3100.3734   -2640.6158   -46.761368    12223.821 
   92600    310.43879    233.09022   -3103.0074   -2641.2532   -135.25774    12226.406 
   92650    304.11158    232.89483   -3096.4945   -2644.1516    6.0538693    12228.739 
   92700    302.41013    232.96107   -3098.7024   -2648.8902   -2.7447011    12230.874 
   92750    307.01625    233.15425   -3105.1415   -2648.4781    -174.3425    12232.801 
   92800    295.96891    232.81127   -3093.7091   -2653.4778    28.378717    12234.478 
   92850    299.56861    232.95822   -3098.6075   -2653.0219    -180.8406     12235.94 
   92900    300.14584    233.01804   -3100.6015   -2654.1573   -226.29263     12237.12 
   92950    289.53223    232.64057    -3088.019   -2657.3617    71.075132    12238.002 
   93000    296.10014    232.99137   -3099.7122   -2659.2857   -225.41641    12238.694 
   93050    295.91549    238.00909   -3100.3029   -2660.1511   -268.53913    12239.096 
   93100     291.8471    237.92415   -3097.4718   -2663.3713   -192.88205    12239.163 
   93150    296.33288    238.21788   -3107.2626   -2666.4899   -412.73152    12238.916 
   93200    285.03439    237.93475   -3097.8251    -2673.858   -164.99687    12238.298 
   93250     304.0281    238.55133   -3118.3778    -2666.159   -744.11102     12237.35 
   93300    292.21606    238.21897    -3107.299   -2672.6497   -480.62666    12235.854 
   93350    289.64007    238.17228   -3105.7425   -2674.9249   -357.74634    12233.876 
   93400    289.08357    238.18188   -3106.0628   -2676.0729   -255.27093    12231.514 
   93450    294.34396    238.38839   -3112.9462   -2675.1318   -418.27879    12228.804 
   93500    289.68089    238.25713   -3108.5709   -2677.6925   -294.72167    12225.677 
   93550    291.68045     238.3789   -3112.6301   -2678.7775   -349.42074    12222.169 
   93600    285.44874    238.22961   -3107.6536   -2683.0702   -177.82468    12218.288 
   93650    283.33177    238.10331   -3103.4438   -2682.0093   -119.61799    12214.113 
   93700    293.73363    238.57218   -3119.0728   -2682.1663   -480.47403    12209.642 
   93750    287.81199    238.34947   -3111.6491   -2683.5506   -277.98971    12204.746 
   93800    287.02848     238.3371   -3111.2366   -2684.3035   -190.86242    12199.487 
   93850    293.71213    238.68647   -3122.8824   -2686.0079   -388.05586    12193.888 
   93900    283.90511    238.30572   -3110.1907   -2687.9034   -46.855215    12187.907 
   93950    297.80163    238.83492   -3127.8307   -2684.8733   -424.26284    12181.636 
   94000     284.0799    238.40989   -3113.6629   -2691.1156    25.694289    12174.971 
   94050    291.58204    238.66369   -3122.1231   -2688.4169   -125.25185    12168.063 
   94100    290.44443    238.68837   -3122.9456   -2690.9315   -122.17061    12160.887 
   94150    295.40015    238.89622   -3129.8741   -2690.4888   -199.80399    12153.416 
   94200    289.44283    238.59251   -3119.7504   -2689.2262    183.79238    12145.657 
   94250    287.93331    238.48343   -3116.1143   -2687.8353    395.62601    12137.755 
   94300    294.97407     238.8334     -3127.78   -2689.0284    260.88751    12129.821 
   94350     287.4923    238.61928   -3120.6426   -2693.0196    586.34408    12121.839 
   94400    300.70564    239.07876   -3135.9588    -2688.682    344.75206    12113.916 
   94450    296.50191    238.82064   -3127.3547   -2686.3305    594.23802    12106.014 
   94500    296.08959    238.79497    -3126.499   -2686.0882    702.16413    12098.191 
   94550    300.02285     239.0098   -3133.6601   -2687.3989    627.33794    12090.516 
   94600    299.30236    239.04389   -3134.7962   -2689.6067    626.30877     12082.97 
   94650    302.33704    239.17984   -3139.3281   -2689.6247    627.87623    12075.547 
   94700     283.5148    238.39592   -3113.1972   -2691.4905      1381.54    12068.308 
   94750    296.99641    238.84761   -3128.2538   -2686.4941    1111.2525    12061.513 
   94800    296.99167    238.95832   -3131.9441   -2690.1915    1136.1916    12055.123 
   94850     298.7946     239.0344     -3134.48   -2690.0456    1100.5886    12049.138 
   94900    305.16902    239.30162   -3143.3873   -2689.4715    938.62741    12043.514 
   94950    299.83407    239.01483   -3133.8275   -2687.8471    1213.3785    12038.206 
   95000    298.56378    239.01047   -3133.6824   -2689.5914    1305.9835    12033.334 
   95050     306.7316    239.22008   -3140.6694   -2684.4294    1106.1492    12028.934 
   95100    300.55445    239.02709   -3134.2364   -2687.1844    1281.4142    12024.946 
   95150    302.43273    239.09378   -3136.4592   -2686.6134    1300.2357     12021.42 
   95200    292.12949    238.71953   -3123.9845    -2689.464    1686.9806    12018.419 
   95250    316.35627    239.60109   -3153.3696   -2682.8136    931.08701    12016.039 
   95300    304.28623    239.17762   -3139.2539   -2686.6512    1300.7418     12014.03 
   95350    299.88653    238.89833   -3129.9442   -2683.8858    1525.6195    12012.503 
   95400     301.4079    238.96808   -3132.2692   -2683.9478    1474.3536    12011.574 
   95450    302.15729    238.96719   -3132.2396   -2682.8035    1404.0551    12011.252 
   95500    315.79198    239.58006   -3152.6685   -2682.9519    892.71598    12011.472 
   95550    305.61659    239.24487   -3141.4957   -2686.9142    1119.1206    12012.026 
   95600    304.43262    239.25453   -3141.8178   -2688.9973     1105.695    12012.974 
   95650    293.19796    238.85605   -3128.5349   -2692.4251    1475.3956    12014.366 
   95700    301.21239    239.07817   -3135.9388   -2687.9082    1280.3431    12016.337 
   95750    294.99521    238.84948   -3128.3161   -2689.5331    1519.0857    12018.846 
   95800     300.2167    239.05089   -3135.0295   -2688.4799    1414.6482    12021.962 
   95850    296.21726    238.99534   -3133.1779   -2692.5772    1390.3877    12025.693 
   95900    293.55698    238.86461   -3128.8202   -2692.1765     1341.394    12030.003 
   95950    297.06491    239.03487   -3134.4956    -2692.634    1106.2744    12034.859 
   96000    300.30607    239.07225   -3135.7417   -2689.0592    973.41133    12040.159 
   96050    299.54746    239.00725   -3133.5748   -2688.0207    1035.0462    12045.821 
   96100     288.8955    238.56369   -3118.7896   -2689.0795    1362.7916    12051.911 
   96150    297.19766    238.94576   -3131.5252   -2689.4662    974.51474    12058.542 
   96200    300.71486    239.12887   -3137.6289   -2690.3384    763.90931    12065.557 
   96250    303.17198    239.09708   -3136.5692   -2685.6239    631.98872     12072.85 
   96300    303.36134     239.1382   -3137.9399   -2686.7129    503.36402    12080.343 
   96350    293.14768    238.73941    -3124.647    -2688.612    751.21211     12087.98 
   96400    294.14717    238.79411   -3126.4702   -2688.9485    623.05057    12095.852 
   96450    290.92754    238.69757   -3123.2525   -2690.5198    662.84493    12103.938 
   96500     286.9083    238.53248   -3117.7492   -2690.9949    795.52562    12112.242 
   96550    296.10075    238.83064   -3127.6879   -2687.2605    371.95954     12120.81 
   96600    302.64909    239.01285   -3133.7617   -2683.5941     1.724427    12129.455 
   96650    308.24995    239.17745   -3139.2485   -2680.7501   -148.82129    12137.953 
   96700    283.70213    238.31695   -3110.5648   -2688.5794    586.36014     12146.29 
   96750     299.8853    238.82288   -3127.4295   -2681.3728   -6.3349662    12154.722 
   96800     298.8029    238.72186    -3124.062   -2679.6153   -81.143206    12163.043 
   96850    281.33799    238.11231   -3103.7436   -2685.2747    345.24161    12171.214 
   96900    290.95657    238.53945   -3117.9817   -2685.2059   -128.01041    12179.381 
   96950    288.31583    238.36414    -3112.138     -2683.29   -202.09275    12187.374 
   97000    289.92752    238.35778    -3111.926   -2680.6808   -356.02427     12195.11 
   97050    292.58906    238.49382   -3116.4606   -2681.2565   -482.39676    12202.502 
   97100    286.06248    238.29612   -3109.8707   -2684.3745   -259.62491    12209.522 
   97150    301.95439    238.82462   -3127.4874   -2678.3531   -748.63629    12216.195 
   97200    281.97584    238.10131   -3103.3771   -2683.9594   -187.46767    12222.381 
   97250    292.90983    238.45363   -3115.1212     -2679.44   -558.18812    12228.255 
   97300    291.30272    238.34007   -3111.3356   -2678.0449   -586.59167    12233.691 
   97350    279.27666    237.87386   -3095.7953   -2680.3924   -204.89271     12238.66 
   97400    273.06767    237.71171   -3090.3903   -2684.2228   -121.48155    12243.366 
   97450    292.84426    238.34647   -3111.5488   -2675.9652   -804.40053    12247.814 
   97500    297.33699    238.41879   -3113.9595   -2671.6933   -915.20471    12251.685 
   97550    293.21274    238.24184   -3108.0614   -2671.9297   -708.95311    12254.899 
   97600    286.20172    237.94787   -3098.2624    -2672.559   -476.86601    12257.558 
   97650      290.597    238.17947   -3105.9824   -2673.7414   -576.41659    12259.755 
   97700    281.28843    237.81125   -3093.7084   -2675.3132   -300.14305    12261.498 
   97750    292.00141     238.1304   -3104.3468   -2670.0168   -541.92999    12262.867 
   97800    278.31003     237.7235   -3090.7835   -2676.8184   -68.866074    12263.811 
   97850    281.60904    237.85362   -3095.1207   -2676.2486   -159.36435    12264.515 
   97900    300.44796    238.35402   -3111.8008   -2664.9073   -695.35463    12264.922 
   97950    281.76351    237.62906   -3087.6352   -2668.5333    -210.5752    12264.827 
   98000    292.11552    237.89589   -3096.5296   -2662.0299   -585.70891    12264.396 
   98050    295.98889    243.02523   -3100.8409   -2660.5798   -682.65105     12263.48 
   98100    296.26909    243.06975   -3102.3251   -2661.6473   -562.80458    12262.016 
   98150    297.70317    243.12486   -3104.1621   -2661.3511    -482.0663    12260.073 
   98200    284.82013    242.70714   -3090.2381   -2666.5897   -50.371339    12257.698 
   98250    298.50334    243.16624   -3105.5413   -2661.5402    -509.0778    12255.064 
   98300    298.69962    243.15776   -3105.2586   -2660.9655   -513.03003    12252.008 
   98350    291.67199    242.87005   -3095.6684   -2661.8284   -219.29807    12248.501 
   98400    301.63481    243.12943   -3104.3144   -2655.6555   -466.42496    12244.663 
   98450    296.00268    242.94851   -3098.2837   -2658.0022   -310.87295    12240.417 
   98500    297.50404    242.98668    -3099.556   -2657.0413   -234.03191    12235.806 
   98550    287.47687    242.57736   -3085.9119   -2658.3118    258.42046    12230.905 
   98600    280.33103    242.32662   -3077.5538   -2660.5827    606.59263    12225.954 
   98650    307.34349    243.26379    -3108.793   -2651.6428   -142.94598    12221.087 
   98700    301.84141    243.03158   -3101.0528   -2652.0865    125.62389    12216.012 
   98750    293.14901    242.72142    -3090.714    -2654.677    553.85949    12210.814 
   98800    302.75407    243.00488   -3100.1627    -2649.839    383.94717    12205.707 
   98850    304.89464     243.1854   -3106.1801   -2652.6724    277.00091    12200.634 
   98900    301.53601    243.06655   -3102.2185   -2653.7065    379.93375    12195.523 
   98950    294.63306    242.85256   -3095.0852   -2656.8409    629.60351    12190.428 
   99000    293.89255    242.62835   -3087.6117   -2650.4688    727.38954    12185.489 
   99050    298.83155    242.79025   -3093.0083    -2648.519    593.95394    12180.753 
   99100    308.12042    243.10224   -3103.4081   -2645.1024    438.78687     12176.14 
   99150      292.395    242.57869   -3085.9562   -2651.0408    1040.5514    12171.632 
   99200    298.57374    242.81042   -3093.6806   -2649.5748    944.59805    12167.462 
   99250    299.12384    242.75592   -3091.8639   -2646.9399    988.80532    12163.653 
   99300    303.57286    243.00864    -3100.288   -2648.7464    883.93745    12160.178 
   99350    296.18916     242.7088   -3090.2933   -2649.7343    1156.3304    12157.029 
   99400    309.13397    243.16738   -3105.5793   -2645.7659    821.51919    12154.279 
   99450    312.03269    243.23745    -3107.915     -2643.79     792.3895    12151.798 
   99500    302.45142    242.83865   -3094.6218   -2644.7482    1126.1127    12149.593 
   99550    301.89558    242.82283   -3094.0942   -2645.0474    1186.1666    12147.785 
   99600     308.4749    242.92736   -3097.5788   -2638.7458    1043.9402    12146.433 
   99650    298.59686    242.60454   -3086.8179   -2642.6777    1256.3254    12145.501 
   99700    312.02659    243.19961   -3106.6535   -2642.5376    648.07951    12145.012 
   99750    316.05819    243.30327   -3110.1089   -2639.9963     501.6741    12144.729 
   99800    317.35564    243.37436   -3112.4785   -2640.4361    546.42705    12144.535 
   99850    302.64507    242.80634   -3093.5448   -2643.3832    1036.4165    12144.497 
   99900    298.94115    242.70849   -3090.2829   -2645.6306    1187.7759    12144.823 
   99950    289.62504    242.43948   -3081.3159   -2650.5206    1510.0521    12145.644 
  100000    304.27767    242.91238   -3097.0794   -2644.4895    1170.2446    12147.058 
Loop time of 27.3219 on 1 procs for 100000 steps with 500 atoms

Performance: 316.230 ns/day, 0.076 hours/ns, 3660.065 timesteps/s
99.8% CPU use with 1 MPI tasks x 1 OpenMP threads

MPI task timing breakdown:
Section |  min time  |  avg time  |  max time  |%varavg| %total
---------------------------------------------------------------
Pair    | 21.69      | 21.69      | 21.69      |   0.0 | 79.39
Bond    | 0.0073781  | 0.0073781  | 0.0073781  |   0.0 |  0.03
Neigh   | 0.54269    | 0.54269    | 0.54269    |   0.0 |  1.99
Comm    | 0.77851    | 0.77851    | 0.77851    |   0.0 |  2.85
Output  | 0.018317   | 0.018317   | 0.018317   |   0.0 |  0.07
Modify  | 2.7436     | 2.7436     | 2.7436     |   0.0 | 10.04
Other   |            | 1.541      |            |       |  5.64

Nlocal:    500 ave 500 max 500 min
Histogram: 1 0 0 0 0 0 0 0 0 0
Nghost:    1601 ave 1601 max 1601 min
Histogram: 1 0 0 0 0 0 0 0 0 0
Neighs:    14495 ave 14495 max 14495 min
Histogram: 1 0 0 0 0 0 0 0 0 0

Total # of neighbors = 14495
Ave neighs/atom = 28.99
Ave special neighs/atom = 0
Neighbor list builds = 658
Dangerous builds = 0

write_data      ${walker}/final_restart_file
write_data      15/final_restart_file

quit
