LAMMPS (19 May 2017)
Processor partition = 15
  using 1 OpenMP thread(s) per MPI task
# gREM variables
variable        lambda world 1000 1005 1010 1015 1020 1025 1030 1035 1040 1045 1050 1055 1060 1065 1070 1075
variable        walker world 0 1 2 3 4 5 6 7 8 9 10 11 12 13 14 15
variable        replica world 1 3 7 2 4 6 5 8 11 14 0 10 12 13 9 15

variable        T0 equal 300.0
variable        press equal 0.0

units           real
atom_style      full
pair_style      lj/cut 5.0

# LJ particles
read_data       ${walker}/restart_file
read_data       15/restart_file
  orthogonal box = (0.881706 0.881706 0.881706) to (24.1183 24.1183 24.1183)
  1 by 1 by 1 MPI processor grid
  reading atoms ...
  500 atoms
  reading velocities ...
  500 velocities
  0 = max # of 1-2 neighbors
  0 = max # of 1-3 neighbors
  0 = max # of 1-4 neighbors
  1 = max # of special neighbors

#dump            dump all xyz 1000 ${walker}/dump.xyz

fix             fxnpt all npt temp ${T0} ${T0} 1000.0 iso ${press} ${press} 10000.0
fix             fxnpt all npt temp 300 ${T0} 1000.0 iso ${press} ${press} 10000.0
fix             fxnpt all npt temp 300 300 1000.0 iso ${press} ${press} 10000.0
fix             fxnpt all npt temp 300 300 1000.0 iso 0 ${press} 10000.0
fix             fxnpt all npt temp 300 300 1000.0 iso 0 0 10000.0
fix             fxgREM all grem ${lambda} -.03 -30000 fxnpt
fix             fxgREM all grem 1075 -.03 -30000 fxnpt
thermo_modify   press fxgREM_press

thermo          50
thermo_style    custom step temp f_fxgREM pe etotal press vol
WARNING: New thermo_style command, previous thermo_modify settings will be lost (../output.cpp:705)
timestep        1.0

temper/grem     100000 1000 ${lambda} fxgREM fxnpt 10294 98392 ${walker}
temper/grem     100000 1000 1075 fxgREM fxnpt 10294 98392 ${walker}
temper/grem     100000 1000 1075 fxgREM fxnpt 10294 98392 15
Neighbor list info ...
  update every 1 steps, delay 10 steps, check yes
  max neighbors/atom: 2000, page size: 100000
  master list distance cutoff = 7
  ghost atom cutoff = 7
  binsize = 3.5, bins = 7 7 7
  1 neighbor lists, perpetual/occasional/extra = 1 0 0
  (1) pair lj/cut, perpetual
      attributes: half, newton on
      pair build: half/bin/newton
      stencil: half/bin/3d/newton
      bin: standard
Per MPI rank memory allocation (min/avg/max) = 5.724 | 5.724 | 5.724 Mbytes
Step Temp f_fxgREM PotEng TotEng Press Volume 
       0    291.81293    263.84809    -2961.603   -2527.5534    848.08011    12546.342 
      50    312.92505    264.66237   -2988.7457   -2523.2934    108.15475     12546.43 
     100    306.20095    264.44726   -2981.5754   -2526.1247    447.35716    12546.537 
     150    312.41274    264.73084   -2991.0281   -2526.3379     208.8939     12546.77 
     200    328.33066    265.30211   -3010.0703   -2521.7033   -432.20406    12546.974 
     250    310.72304     264.6244     -2987.48   -2525.3031    107.07255    12546.867 
     300    301.86822    264.39644   -2979.8814   -2530.8753    335.19169    12546.696 
     350    318.30063    265.12231   -3004.0771    -2530.629   -328.83612    12546.561 
     400    315.82594    265.07179   -3002.3928   -2532.6257   -314.89487     12546.17 
     450    294.95966    264.23281   -2974.4269   -2535.6968    506.11351    12545.528 
     500    295.74855    264.25702   -2975.2341   -2535.3305    649.15609    12545.011 
     550    288.47731    263.98737   -2966.2458   -2537.1576    955.75713    12544.793 
     600    288.92294    263.98349   -2966.1165   -2536.3655    907.91779    12545.001 
     650    306.96211     264.7024   -2990.0799    -2533.497    167.62374    12545.583 
     700    311.47236    264.91197   -2997.0657   -2533.7742   -51.722154    12546.175 
     750    304.54146    264.66939   -2988.9797   -2535.9974    157.25077    12546.644 
     800      309.728    264.95723   -2998.5745   -2537.8775   -76.677265    12547.073 
     850     300.8453    264.54774   -2984.9248   -2537.4402    246.01687    12547.383 
     900    293.38886    264.21061   -2973.6869   -2537.2932    509.15988    12547.729 
     950    301.12428    264.66088   -2988.6958   -2540.7963    159.22845     12548.22 
    1000     289.3087    264.14941   -2971.6471   -2541.3223    626.30613     12548.75 
    1050    290.74713    264.29199   -2976.3995   -2543.9352    656.47419    12549.513 
    1100     296.2153    264.53789   -2984.5963   -2543.9985    453.59234     12550.55 
    1150     303.3486    264.85852    -2995.284   -2544.0759    179.45306    12551.741 
    1200     301.1776    264.82298   -2994.0994   -2546.1206    206.98341     12552.95 
    1250    291.27012    264.50732   -2983.5772    -2550.335    425.49648    12554.186 
    1300    297.65449    264.69935   -2989.9782   -2547.2397    197.13687    12555.522 
    1350    300.35208    264.81857   -2993.9522   -2547.2013    93.725954    12556.886 
    1400    300.21808     264.7888   -2992.9601   -2546.4085   -6.5939534    12558.205 
    1450    307.60681    265.08195   -3002.7317   -2545.1899   -365.93507     12559.39 
    1500    303.48154    264.97987    -2999.329   -2547.9232   -328.63546    12560.304 
    1550    301.95521    265.01932   -3000.6441   -2551.5086   -285.34623    12560.909 
    1600    286.05188    264.40304   -2980.1013   -2554.6208    232.38862    12561.262 
    1650    288.22319    264.57189   -2985.7295   -2557.0194   -33.983727     12561.61 
    1700    299.95279    265.04108   -3001.3695   -2555.2124   -491.88256    12561.818 
    1750    289.25954    264.62919   -2987.6397   -2557.3881   -83.508883    12561.671 
    1800    283.21606    264.41505   -2980.5016   -2559.2392     200.6802    12561.364 
    1850    289.74685      264.723   -2990.7667   -2559.7902   -23.252208    12561.044 
    1900    290.00094    264.71777   -2990.5923   -2559.2378   -123.36919    12560.613 
    1950    286.97483     264.6107   -2987.0232   -2560.1699    -147.0074    12560.004 
    2000    288.56422    264.81132   -2993.7106   -2564.4932   -364.02862    12559.188 
    2050    287.69662    264.89106   -2996.3687   -2568.4418   -413.63331    12558.071 
    2100    272.64784    264.35977    -2978.659    -2573.116    108.78687    12556.643 
    2150    281.39679     264.6811   -2989.3699   -2570.8135   -207.56023    12555.128 
    2200    288.33432    264.97107   -2999.0357   -2570.1603   -530.98016    12553.413 
    2250    288.28506    265.11573   -3003.8577   -2575.0555   -542.56167    12551.288 
    2300    282.39628    264.97688   -2999.2295   -2579.1864   -342.79766    12548.762 
    2350    283.20674    264.91063   -2997.0209   -2575.7723   -268.84743    12545.923 
    2400    287.48777    265.15686   -3005.2286   -2577.6123   -419.05216    12542.801 
    2450    290.82792    265.23568   -3007.8559   -2575.2714   -556.47342    12539.327 
    2500     287.0446    265.16665    -3005.555   -2578.5979   -358.21041    12535.441 
    2550    281.60637    264.96719   -2998.9064   -2580.0383   -24.156707    12531.242 
    2600    284.31083    265.18357   -3006.1189   -2583.2281   -132.99783    12526.916 
    2650    293.30976    265.62158   -3020.7195   -2584.4434   -479.48601    12522.395 
    2700    279.70369    265.09845   -3003.2816   -2587.2436   -82.466124    12517.535 
    2750     290.1435    265.47442    -3015.814   -2584.2475   -439.19812    12512.482 
    2800    291.66004    265.62107   -3020.7024   -2586.8802   -520.19756    12507.094 
    2850    286.39466    265.39658   -3013.2195   -2587.2291   -343.10049    12501.302 
    2900    286.12598    265.45021    -3015.007   -2589.4163   -295.19655    12495.195 
    2950    286.44499    265.51358   -3017.1193   -2591.0541   -154.00381    12488.826 
    3000     280.7011    265.33077   -3011.0258   -2593.5041    93.524394    12482.282 
    3050    302.15317    261.17867   -3039.2891   -2589.8592   -603.46581    12475.605 
    3100    288.91471    260.64665   -3021.5549   -2591.8161   -148.02834    12468.539 
    3150    282.43187    260.41032   -3013.6774   -2593.5814    214.58429    12461.242 
    3200     286.3223    260.62791   -3020.9303   -2595.0476    131.38342     12453.94 
    3250    292.54639    260.86493   -3028.8311   -2593.6905   -100.39662    12446.597 
    3300    286.26579     260.6674   -3022.2466    -2596.448    208.10439    12439.096 
    3350    276.79417    260.19715   -3006.5716   -2594.8613    642.85606    12431.611 
    3400     283.1086    260.48491   -3016.1636    -2595.061    409.67473    12424.331 
    3450    287.70921    260.59387   -3019.7957   -2591.8501    341.31105    12417.175 
    3500    282.64343    260.39257   -3013.0856   -2592.6749    531.83451    12410.119 
    3550    292.20993    260.62554   -3020.8514   -2586.2113    366.60675    12403.213 
    3600     295.8142     260.8897   -3029.6568   -2589.6555    353.16582     12396.41 
    3650    297.67236    260.99795   -3033.2651      -2590.5    311.73204    12389.691 
    3700     303.3014    261.30326   -3043.4421   -2592.3042    133.92648    12383.002 
    3750    289.88113     260.8831   -3029.4367   -2598.2605    641.92433    12376.317 
    3800    287.12651     260.7752   -3025.8401   -2598.7612    902.96198    12369.845 
    3850    292.47765    260.91114   -3030.3715   -2595.3331    845.82259    12363.743 
    3900    297.36072    261.06144   -3035.3814   -2593.0799    741.04962    12358.002 
    3950    305.59742    261.40722   -3046.9075   -2592.3545    542.50338    12352.539 
    4000    295.12071    260.94977   -3031.6589   -2592.6892    989.86017    12347.301 
    4050    293.37785    260.93594   -3031.1979   -2594.8206    1031.7668    12342.471 
    4100     296.6576    261.01161   -3033.7203   -2592.4646    956.14839     12338.09 
    4150    296.53186    261.03954   -3034.6514   -2593.5827    934.40122    12334.116 
    4200    296.42768    260.89628   -3029.8759   -2588.9622    1026.3805    12330.559 
    4250    302.37798    261.03668    -3034.556   -2584.7917    1054.3361    12327.452 
    4300    306.61013    261.17555   -3039.1849   -2583.1256     1023.935    12324.805 
    4350     299.0351    260.88348   -3029.4495   -2584.6574    1267.6961    12322.636 
    4400    303.94279    261.05132   -3035.0439   -2582.9521    1138.2405    12321.036 
    4450    306.31143    260.98137   -3032.7125   -2577.0974    1189.9166    12319.973 
    4500    312.57527    261.24416   -3041.4719   -2576.5399    1051.5666    12319.432 
    4550     304.7922    260.94716    -3031.572   -2578.2167    1316.5626    12319.371 
    4600    294.81958    260.46129   -3015.3763   -2576.8545    1812.4816    12319.952 
    4650    298.56211    260.69172   -3023.0572   -2578.9687    1765.6699    12321.397 
    4700    288.46894    260.21645   -3007.2151   -2578.1394    2072.5375    12323.741 
    4750     297.8533    260.60073   -3020.0242     -2576.99    1675.4497    12327.077 
    4800    304.39202    260.70699   -3023.5663   -2570.8062    1398.9427    12331.233 
    4850    311.48911    260.90617   -3030.2055   -2566.8891    1102.3995    12336.049 
    4900    304.03596    260.58933   -3019.6444    -2567.414    1339.1491    12341.398 
    4950    312.26947    260.88754   -3029.5845   -2565.1073    1080.9435    12347.337 
    5000     302.0364    260.46687   -3015.5624   -2566.3062    1377.0867    12353.813 
    5050    302.26297    260.43918   -3014.6392   -2565.0459    1317.6332    12360.931 
    5100    311.22884    260.80784   -3026.9279   -2563.9986    908.03651    12368.651 
    5150     309.1766    260.68789   -3022.9296   -2563.0529    982.27559    12376.779 
    5200     306.4476    260.69098   -3023.0328   -2567.2152    990.20982    12385.341 
    5250    312.30224    260.78292   -3026.0975   -2561.5715    752.33509    12394.329 
    5300    295.47663    260.00386   -3000.1288   -2560.6297    1295.7637    12403.691 
    5350    305.86485    260.38191   -3012.7303   -2557.7795    957.08324    12413.613 
    5400    306.65029    260.35194   -3011.7315   -2555.6124    900.75607    12423.996 
    5450    304.63899    260.17595   -3005.8651   -2552.7377    835.95256    12434.776 
    5500    322.04868    260.89338   -3029.7793   -2550.7563     52.77798    12445.864 
    5550    313.81088    260.52707   -3017.5692   -2550.7993    184.25277    12456.935 
    5600    316.57595    260.58364   -3019.4547    -2548.572   -31.069394    12467.974 
    5650    305.63725    260.18199   -3006.0664   -2551.4542    180.40379    12478.906 
    5700    297.42506    259.78821   -2992.9402    -2550.543    482.94606    12489.825 
    5750    303.02846    260.02656   -3000.8852   -2550.1533    292.43256    12500.881 
    5800    304.36329    259.95006   -2998.3353    -2545.618    202.37522     12511.99 
    5850    301.16291    259.85219   -2995.0729   -2547.1159    186.23049    12523.099 
    5900    304.33043    259.97663    -2999.221   -2546.5526   -33.982125     12534.18 
    5950    298.30365    259.72587   -2990.8622   -2547.1581   -1.5175337    12545.137 
    6000    293.49132    259.64454   -2988.1513   -2551.6052    7.8772199    12555.958 
    6050    283.22415    259.15524   -2971.8413   -2550.5668    268.77119    12566.687 
    6100    298.73062    259.76343   -2992.1144   -2547.7752   -312.93548    12577.383 
    6150    303.37207    259.81491   -2993.8305   -2542.5875   -529.15345    12587.808 
    6200    312.42468    260.08696   -3002.8987   -2538.1907   -856.23407    12597.784 
    6250    311.10235    259.85274   -2995.0914   -2532.3502   -820.31436    12607.156 
    6300    305.27851    259.68397   -2989.4657   -2535.3871   -687.93549    12615.921 
    6350    296.87548    259.44127   -2981.3756   -2539.7959   -440.69092    12624.156 
    6400    296.27339    259.43314   -2981.1047   -2540.4205   -415.90876     12631.98 
    6450    288.24044    259.03527   -2967.8423   -2539.1065   -184.88112    12639.453 
    6500     292.8873    259.17144   -2972.3813   -2536.7337   -449.81342    12646.659 
    6550     301.6598    259.52253   -2984.0844   -2535.3883   -797.40426    12653.462 
    6600    296.08328    259.35441   -2978.4804    -2538.079   -671.78872    12659.684 
    6650    290.26141    259.01926   -2967.3087   -2535.5668   -566.41698    12665.394 
    6700    298.25354    259.25268   -2975.0895   -2531.4599    -909.3368    12670.602 
    6750     292.5719    258.97421   -2965.8072   -2530.6286   -685.34475    12675.173 
    6800     292.8792    258.98378   -2966.1261   -2530.4905   -571.81425    12679.195 
    6850    294.38876    258.99852   -2966.6173   -2528.7363   -534.37356    12682.751 
    6900    301.60741    259.27751   -2975.9172    -2527.299   -826.32561    12685.831 
    6950     295.8433    259.05522   -2968.5074   -2528.4629   -776.36413    12688.318 
    7000    298.01799    259.11736   -2970.5787   -2527.2995   -930.98165    12690.205 
    7050    287.51417    263.63049   -2954.3498   -2526.6943   -579.85765    12691.459 
    7100    296.94584    264.02562   -2967.5207   -2525.8362   -810.09893     12692.21 
    7150    294.98485    263.89583   -2963.1942   -2524.4266   -617.98626    12692.397 
    7200    288.73662    263.68745   -2956.2484   -2526.7746   -395.38743    12692.115 
    7250    298.53714    263.94348   -2964.7826   -2520.7312   -614.21199    12691.463 
    7300    290.40146    263.57659   -2952.5529   -2520.6027    -296.7267     12690.38 
    7350    300.31479     263.8403   -2961.3434   -2514.6479   -588.82749    12688.965 
    7400    317.87505    264.41446   -2980.4819   -2507.6669   -1101.0268    12687.073 
    7450    303.18871    263.82605   -2960.8685   -2509.8982    -440.8444     12684.49 
    7500    290.44102    263.19202   -2939.7338   -2507.7248     243.1799    12681.517 
    7550    290.71031    263.21346   -2940.4485    -2508.039    280.74329    12678.552 
    7600    305.50639    263.72696   -2957.5654   -2503.1478   -238.12139    12675.632 
    7650    312.48502    264.04844   -2968.2815   -2503.4837   -432.73855    12672.468 
    7700    298.44689    263.36785   -2945.5951    -2501.678    152.88559    12668.986 
    7750    313.70426    263.90499   -2963.4997   -2496.8884   -305.95967    12665.414 
    7800    307.80413    263.66245   -2955.4151   -2497.5798   -86.197875    12661.616 
    7850    307.14897    263.67683   -2955.8944   -2499.0336   -16.002539    12657.644 
    7900    309.68237    263.75582   -2958.5272   -2497.8981    -28.77712    12653.554 
    7950     305.0294    263.56022   -2952.0072   -2498.2991     220.4175    12649.363 
    8000    305.83455    263.61272   -2953.7572   -2498.8515     325.9316    12645.173 
    8050    300.71621    263.32117   -2944.0391   -2496.7465    652.13283    12641.087 
    8100    319.74982    264.07329   -2969.1095   -2493.5059    49.918063    12637.206 
    8150    311.87528    263.71906   -2957.3019    -2493.411    290.22742    12633.306 
    8200    312.20434    263.69109   -2956.3696   -2491.9893    221.76276    12629.446 
    8250    324.03683    264.14205   -2971.4016   -2489.4214   -224.93195     12625.59 
    8300    319.18672    263.91212   -2963.7374   -2488.9713    68.904283    12621.536 
    8350    316.89051    263.81446   -2960.4819   -2489.1313    263.67055     12617.39 
    8400    331.85673    264.38378   -2979.4592   -2485.8475   -119.16032    12613.244 
    8450     307.3393    263.37256   -2945.7521   -2488.6081    828.03368    12609.005 
    8500    318.15301    263.78839   -2959.6131   -2486.3846    506.03217    12605.051 
    8550    334.48505    264.54505   -2984.8349   -2487.3137   -149.85743    12601.266 
    8600    324.99473     264.2341   -2974.4701    -2491.065     193.0567    12597.347 
    8650    316.70952    263.90333   -2963.4443   -2492.3629    535.72151    12593.428 
    8700     318.0465    263.90923   -2963.6411   -2490.5711    551.69705    12589.683 
    8750    305.87286    263.48525   -2949.5084   -2494.5457    926.97988    12586.175 
    8800    306.32683    263.53207    -2951.069    -2495.431    807.28337    12583.065 
    8850    327.68338    264.46502   -2982.1674   -2494.7632   -5.9499119    12580.274 
    8900    323.36746    264.30407   -2976.8023   -2495.8177    239.32241    12577.423 
    8950     302.3321    263.50353   -2950.1176   -2500.4215    1029.4481     12574.62 
    9000    320.03078    264.29779   -2976.5931   -2500.5715    401.04878    12572.203 
    9050    308.70544    263.83629   -2961.2098   -2502.0339    716.86548    12569.982 
    9100    305.64396    263.76162   -2958.7208   -2504.0985     871.1443    12568.038 
    9150     312.7631      264.007      -2966.9   -2501.6886    727.85604    12566.471 
    9200    315.72801    264.10672    -2970.224   -2500.6025    754.57475    12565.214 
    9250    296.83397    263.39905   -2946.6351   -2505.1171    1338.5611    12564.319 
    9300    299.08858    263.59716   -2953.2387   -2508.3671    1107.9632    12564.037 
    9350    312.76869    264.20394   -2973.4648    -2508.245    605.78882    12564.254 
    9400    306.44775    263.93071   -2964.3569   -2508.5391    815.99544    12564.768 
    9450    312.02488    264.14051   -2971.3503    -2507.237    653.05236    12565.611 
    9500     308.7446    264.10912   -2970.3041   -2511.0699    714.67323    12566.741 
    9550    306.76463    263.92753   -2964.2511   -2507.9619    798.52942    12568.177 
    9600    317.55017    264.38165   -2979.3884   -2507.0566    351.41812    12569.915 
    9650    304.19146    263.88036   -2962.6786   -2510.2168    661.29441     12571.79 
    9700    300.70967    263.84051   -2961.3502   -2514.0673    664.68922    12573.911 
    9750    315.08316    264.45767   -2981.9224   -2513.2601    71.876559    12576.277 
    9800    312.14058    264.32841   -2977.6138   -2513.3284    85.196082     12578.61 
    9850    315.03029    264.49639   -2983.2131   -2514.6294   -60.834671    12580.866 
    9900    311.59295    264.37675   -2979.2251   -2515.7542   -24.412368    12582.996 
    9950    310.91261    264.40994   -2980.3313   -2517.8723    19.858854    12584.988 
   10000    296.61649    263.76576   -2958.8587   -2517.6642    587.62455    12586.908 
   10050    300.22778    263.95687    -2965.229   -2518.6629    396.52186    12589.004 
   10100    304.97761    264.21918   -2973.9727   -2520.3416    107.48584    12591.217 
   10150    301.60873    264.11067   -2970.3557   -2521.7355    156.06045    12593.385 
   10200    303.79167    264.25879    -2975.293   -2523.4259    14.283341     12595.52 
   10250    290.39871    263.66402   -2955.4672   -2523.5212    486.61465    12597.591 
   10300    290.73342    263.66079   -2955.3596   -2522.9157    488.68643    12599.788 
   10350    301.66805      264.075   -2969.1667   -2520.4583    26.352876    12602.143 
   10400    304.09497    264.19818   -2973.2726   -2520.9544   -263.71165    12604.425 
   10450    317.20865    264.71523   -2990.5078    -2518.684   -717.67597    12606.408 
   10500    307.34759       264.37   -2979.0001   -2521.8439   -375.05034    12607.917 
   10550    311.19837    264.55353   -2985.1177   -2522.2337   -464.12282    12609.061 
   10600    296.43127    264.02955   -2967.6518   -2526.7328   -17.607648    12609.862 
   10650    296.37952     263.9722   -2965.7399   -2524.8978    -42.30587    12610.503 
   10700    303.97476    264.33659   -2977.8862   -2525.7468   -376.37453    12610.998 
   10750    307.34792    264.53176   -2984.3921   -2527.2354   -541.84096    12611.174 
   10800    303.45948    264.37911   -2979.3036   -2527.9306   -403.54045    12610.935 
   10850    295.89654    264.03008   -2967.6694   -2527.5457   -171.28619    12610.374 
   10900     302.0334     264.2816   -2976.0535   -2526.8017   -383.18152    12609.588 
   10950    297.64382    264.21032   -2973.6774   -2530.9548   -176.53611    12608.492 
   11000    288.55997     263.9371     -2964.57   -2535.3589    64.523312     12607.19 
   11050    298.75327    264.34852   -2978.2841   -2533.9112   -329.02072    12605.768 
   11100    302.78762    264.51026   -2983.6754   -2533.3017   -448.78653    12604.062 
   11150     315.2237    264.99652    -2999.884   -2531.0126   -738.40446    12601.962 
   11200    314.56009    264.89906   -2996.6352   -2528.7509   -510.38356     12599.34 
   11250    295.77217    264.12481   -2970.8271   -2530.8884    146.88511    12596.349 
   11300    298.22744    264.30797   -2976.9323   -2533.3416   -9.6530755    12593.265 
   11350    285.82561    263.81843   -2960.6145   -2535.4705    323.90565    12590.119 
   11400     305.4593    264.61007   -2987.0024   -2532.6548   -290.47229     12586.99 
   11450    296.85849    264.37961   -2979.3204   -2537.7659    75.118937    12583.645 
   11500    293.11276    264.20053    -2973.351    -2537.368    246.17247    12580.228 
   11550    299.36527    264.43704   -2981.2346   -2535.9515    16.457939    12576.835 
   11600    296.82615    264.40694   -2980.2314    -2538.725    36.388042    12573.355 
   11650    308.63725    264.87867   -2995.9556    -2536.881   -369.85701    12569.756 
   11700     303.5486    264.70255   -2990.0849   -2538.5793   -267.24684    12565.883 
   11750      322.601    265.37395   -3012.4651   -2532.6206    -881.3028    12561.684 
   11800    308.63228    264.91396   -2997.1321    -2538.065   -405.54117    12556.936 
   11850    291.45929    264.32414   -2977.4713   -2543.9477     183.8498    12551.841 
   11900    295.92751    264.57606   -2985.8688   -2545.6991    43.485003    12546.713 
   11950    306.77999    265.07639   -3002.5464   -2546.2344   -302.08707    12541.508 
   12000    307.50795    265.23623   -3007.8742   -2550.4794   -270.66577    12536.046 
   12050    294.97649    264.69587   -2989.8624   -2551.1072    216.90297    12530.351 
   12100    297.51343    264.84289   -2994.7631   -2552.2344    201.23757    12524.647 
   12150    300.41029    264.97283   -2999.0942   -2552.2566    227.37601    12518.964 
   12200    284.70356    264.31388   -2977.1293   -2553.6543    776.06958    12513.355 
   12250    311.26345    265.39804    -3013.268   -2550.2872   -186.66577     12507.98 
   12300    309.96224    265.43263   -3014.4209   -2553.3756   -238.07763     12502.47 
   12350    312.91558    265.53195   -3017.7315   -2552.2933   -256.08691    12496.706 
   12400    296.92057    264.95261   -2998.4202   -2556.7734    297.39882    12490.731 
   12450    282.17577    264.48817   -2982.9391    -2563.224    833.43643    12484.808 
   12500    290.47023    264.75392   -2991.7974   -2559.7449    663.36768    12479.228 
   12550     304.5214    265.20523   -3006.8409   -2553.8884    233.45002    12473.928 
   12600    301.02883    265.16204   -3005.4012   -2557.6437    374.94207    12468.664 
   12650    294.66202     264.9259   -2997.5298   -2559.2424    613.00033    12463.508 
   12700    300.83347    265.14986   -3004.9954   -2557.5284    442.05909    12458.587 
   12750    298.62131    265.21082   -3007.0275   -2562.8509    515.31448    12453.827 
   12800    304.71144    265.39187   -3013.0623   -2559.8271     325.4906    12449.249 
   12850    306.93617    265.48819   -3016.2729   -2559.7286    200.22917    12444.763 
   12900    296.61275    265.22946   -3007.6486   -2566.4596     471.8918    12440.314 
   12950    304.61044    265.54239   -3018.0796   -2564.9946    255.45066    12435.997 
   13000    294.61455    265.25097   -3008.3658    -2570.149    624.15745    12431.752 
   13050     292.2961    265.27422   -3009.1405   -2574.3722    636.45312    12427.732 
   13100    309.02058    265.89986   -3029.9952   -2570.3505    76.542611    12423.947 
   13150    306.46124     265.8336   -3027.7867   -2571.9488    178.38825     12420.14 
   13200    286.68113    265.21834   -3007.2781   -2580.8616    870.60315    12416.363 
   13250    291.64047    265.42439   -3014.1463   -2580.3532    737.45996    12412.931 
   13300    295.69575    265.61074   -3020.3581    -2580.533    526.82158    12409.808 
   13350    290.74451    265.44089   -3014.6963   -2582.2359    617.17346    12406.904 
   13400    292.74572    265.63701   -3021.2337   -2585.7966    481.01553    12404.258 
   13450    302.79041    266.15815   -3038.6052   -2588.2274    114.67135    12401.764 
   13500    285.29588    265.60239   -3020.0797   -2595.7237    694.01417     12399.29 
   13550    276.27921    265.21851   -3007.2835   -2596.3391    1070.6069    12397.093 
   13600    284.32888    265.54825    -3018.275   -2595.3573    735.45733    12395.364 
   13650    286.12453     265.6927   -3023.0899   -2597.5014    492.65716    12393.954 
   13700    286.22634    265.79853   -3026.6177   -2600.8777    355.07977     12392.73 
   13750     297.0685    266.17777   -3039.2589    -2597.392   -5.3357735    12391.585 
   13800    299.61467     266.3072   -3043.5733   -2597.9191   -129.42834    12390.343 
   13850    289.22193     266.0125   -3033.7499   -2603.5542    146.78794    12388.955 
   13900    287.04565    266.01138   -3033.7127   -2606.7541    221.39052     12387.53 
   13950    281.71208    265.93991   -3031.3303    -2612.305     360.4202    12386.129 
   14000    273.67875     265.5936   -3019.7867   -2612.7103    641.79102    12384.859 
   14050     282.9308     266.0396   -3034.6533   -2613.8152    368.14298    12383.827 
   14100    290.43626    266.38217   -3046.0723   -2614.0703    133.88562     12382.91 
   14150    289.18033    266.25635   -3041.8784   -2611.7446    144.56875    12381.994 
   14200    298.63262    266.55997   -3051.9991   -2607.8057   -188.00042    12381.048 
   14250    306.56236    266.95359   -3065.1195   -2609.1312   -515.00732    12379.887 
   14300    279.70688    265.91213   -3030.4043   -2614.3616    362.43173    12378.398 
   14350    275.30788    265.80262    -3026.754   -2617.2544    538.32037    12376.978 
   14400    270.19665    265.71121   -3023.7069   -2621.8099    819.95691    12375.789 
   14450    279.91639    266.04718   -3034.9061   -2618.5517    610.70172    12374.929 
   14500    286.90544    266.26794   -3042.2648   -2615.5147    246.78973    12374.318 
   14550    287.84269    266.34962   -3044.9875   -2616.8433  -0.96069078    12373.755 
   14600    293.06092     266.5244   -3050.8133   -2614.9074   -245.73703    12373.096 
   14650    276.55894    265.82623   -3027.5408   -2616.1804    354.73786    12372.257 
   14700    295.08036    266.45684   -3048.5614   -2609.6518   -171.75775    12371.448 
   14750    301.46895    266.74088   -3058.0292    -2609.617   -341.02133    12370.479 
   14800    300.06446     266.6622   -3055.4067   -2609.0835    -145.4573    12369.221 
   14850    286.70576    266.20516   -3040.1721    -2613.719    381.00052    12367.817 
   14900    280.53122    265.93338   -3031.1127   -2613.8438    726.05238    12366.516 
   14950    277.66787    265.82999   -3027.6663   -2614.6564    863.26785    12365.507 
   15000     279.5943    265.80298    -3026.766   -2610.8906    742.53349    12364.892 
   15050    294.27508     261.3429   -3044.7633   -2607.0514    224.68113    12364.558 
   15100    289.14914    261.19227   -3039.7423   -2609.6549     381.5663    12364.277 
   15150    286.03274    261.00137   -3033.3792   -2607.9271    536.68922    12364.091 
   15200    295.35436    261.32066   -3044.0219   -2604.7047    365.96506    12364.065 
   15250     299.0849    261.36366   -3045.4553   -2600.5892    343.01876    12364.152 
   15300    293.66269    261.12324   -3037.4413   -2600.6403    563.08758    12364.322 
   15350    279.56435    260.65005   -3021.6684   -2605.8376    987.80001     12364.71 
   15400    295.58312    261.21755    -3040.585   -2600.9275    352.26057    12365.474 
   15450     299.4386    261.37554   -3045.8513   -2600.4591     137.7638    12366.335 
   15500    290.36196    261.02844   -3034.2812   -2602.3898    449.96454    12367.185 
   15550      282.228    260.65123   -3021.7078    -2601.915    837.36367    12368.176 
   15600    301.02662    261.35353   -3045.1177   -2597.3634    248.62302    12369.462 
   15650    301.68088    261.31118    -3043.706   -2594.9786    193.84316     12370.82 
   15700    291.12452    261.00517   -3033.5056     -2600.48    514.47322    12372.173 
   15750    296.63831     261.1929   -3039.7634   -2598.5364    294.34105    12373.665 
   15800    298.87664    261.26499   -3042.1662   -2597.6099    178.06985    12375.209 
   15850    303.62897    261.50664   -3050.2214   -2598.5963    17.979732    12376.731 
   15900    295.68813    261.16509   -3038.8364   -2599.0227    400.40299    12378.174 
   15950    271.89007    260.21459    -3007.153   -2602.7371    1187.7579    12379.767 
   16000    302.53372    261.41539   -3047.1797   -2597.1837    114.13325    12381.799 
   16050    293.61566     255.9958   -3033.1932   -2596.4621    375.84402    12383.869 
   16100    304.64366    256.38804   -3046.2681   -2593.1337   -29.415429    12385.982 
   16150    312.00684    256.57327   -3052.4422   -2588.3557   -313.26266    12387.961 
   16200    307.01709    256.44426    -3048.142   -2591.4773   -178.44459     12389.63 
   16250    293.59013     255.9093   -3030.3099   -2593.6168    293.74578    12391.089 
   16300    299.50898    256.09967   -3036.6557   -2591.1588    148.07313    12392.542 
   16350    307.95509    256.37401   -3045.8002   -2587.7404   -80.140988     12393.94 
   16400    296.57468    255.91837   -3030.6123   -2589.4799     308.6311     12395.19 
   16450    292.82115    255.79716   -3026.5719   -2591.0226    441.15259    12396.474 
   16500    299.65714    255.99884   -3033.2946   -2587.5773    331.23137    12397.856 
   16550    286.58569    255.54966    -3018.322   -2592.0475    818.28864    12399.335 
   16600    296.07824    255.90199   -3030.0665   -2589.6725    576.79375    12401.098 
   16650    303.28714    256.12678   -3037.5594   -2586.4428    322.11897     12403.06 
   16700    302.51723    256.04396   -3034.7987   -2584.8273    311.72102    12405.089 
   16750    305.45682    256.04778   -3034.9261   -2580.5823    186.36068    12407.155 
   16800    305.99448    256.09494   -3036.4981   -2581.3545    37.730989    12409.191 
   16850    309.34684    256.14381    -3038.127    -2577.997   -106.67105    12411.121 
   16900    312.59811    256.30469   -3043.4898   -2578.5238   -145.09516    12412.855 
   16950    311.15887    256.18295   -3039.4317   -2576.6065   -17.230863    12414.374 
   17000    299.72799    255.75813   -3025.2711   -2579.4485    323.06675    12415.759 
   17050    292.64903    255.57882   -3019.2941   -2584.0008    458.92853    12417.182 
   17100    289.73325    255.39105   -3013.0351   -2582.0788    575.77492    12418.732 
   17150    288.39687    255.37201   -3012.4002   -2583.4317    642.58663     12420.46 
   17200    293.91111    255.54795   -3018.2649   -2581.0944    432.97864     12422.41 
   17250    302.56097    255.84938   -3028.3127   -2578.2762    118.34302     12424.47 
   17300    305.89016    255.92439    -3030.813   -2575.8246   -48.578465    12426.479 
   17350     305.2437     255.8957   -3029.8567   -2575.8299   -134.95735    12428.331 
   17400    302.57081    255.84977   -3028.3258   -2578.2746   -123.26326    12429.978 
   17450    298.42075    255.65714   -3021.9047   -2578.0265    65.258905    12431.431 
   17500    296.39426    255.53718   -3017.9059   -2577.0419    209.34794    12432.779 
   17550    304.81463    255.77377   -3025.7923   -2572.4037   -65.261711    12434.095 
   17600    312.57676    256.11565   -3037.1884   -2572.2541   -302.59666    12435.227 
   17650     288.1351    255.20675   -3006.8915   -2578.3124    609.78168    12436.125 
   17700    290.85861    255.27424   -3009.1412   -2576.5111    644.39687    12437.194 
   17750    299.68219    255.60978   -3020.3261   -2574.5716    357.06306    12438.479 
   17800    295.12574    255.34482   -3011.4941    -2572.517    607.49659    12439.863 
   17850    300.53937     255.6029   -3020.0968   -2573.0672    507.14931    12441.432 
   17900    288.21778     255.2213   -3007.3765   -2578.6744    852.07353    12443.178 
   17950    298.87515     255.5803   -3019.3433   -2574.7892    404.08222    12445.245 
   18000    320.06196    256.25696   -3041.8987   -2565.8308    -366.6333    12447.407 
   18050    308.64832    250.74597   -3024.8657   -2565.7747   -47.814815    12449.276 
   18100    312.25834    250.81274   -3027.0914   -2562.6308   -164.30678    12450.917 
   18150    307.27288    250.67776   -3022.5921   -2565.5469    7.7366557    12452.327 
   18200     305.6617    250.66873   -3022.2912   -2567.6425    119.74887    12453.577 
   18250    300.61199    250.37339   -3012.4464   -2565.3088    264.18293    12454.765 
   18300    318.31974     251.0819   -3036.0632   -2562.5867   -336.86445    12455.905 
   18350     298.2916    250.17835   -3005.9451   -2562.2589     380.2345     12456.79 
   18400    310.99112    250.64814   -3021.6045   -2559.0288    34.247122     12457.65 
   18450      310.431    250.53884   -3017.9613   -2556.2187    159.50757    12458.406 
   18500    305.67153    250.36458   -3012.1525   -2557.4893    429.31451    12459.102 
   18550    322.49744    251.04845   -3034.9482   -2555.2577   -121.16084    12459.834 
   18600    310.13025    250.53741   -3017.9136   -2556.6183    230.48199    12460.404 
   18650    312.49004    250.49759   -3016.5864   -2551.7812    257.24513    12460.908 
   18700    300.18895    249.94369    -2998.123   -2551.6146    615.00715    12461.439 
   18750    314.38413    250.48048    -3016.016   -2548.3935    8.5850318    12462.112 
   18800    320.58366    250.69857   -3023.2858   -2546.4419    -227.5326    12462.661 
   18850    311.43074    250.36182   -3012.0605   -2548.8309    157.25399    12462.955 
   18900    298.98977    249.89641   -2996.5469   -2551.8223    662.87167    12463.185 
   18950    303.98429    250.05071   -3001.6903   -2549.5367    508.95011    12463.592 
   19000    313.30512    250.32755   -3010.9182   -2544.9006    155.70452     12464.13 
   19050    329.24367    250.83869   -3027.9564   -2538.2314   -333.31396    12464.585 
   19100     327.4884    250.76339   -3025.4462    -2538.332    -164.4939    12464.719 
   19150    323.23085    250.59135   -3019.7117   -2538.9303    130.16778    12464.592 
   19200    314.05526    250.18434   -3006.1447   -2539.0113    510.31662    12464.389 
   19250    311.61536    250.04605    -3001.535   -2538.0308    560.19087    12464.304 
   19300    313.87385    250.13851   -3004.6169   -2537.7534    535.21503    12464.373 
   19350    320.65665    250.34535   -3011.5116   -2534.5592    353.15452    12464.592 
   19400    323.11094    250.39284   -3013.0947   -2532.4917    287.16797    12464.867 
   19450    314.87959    250.09753   -3003.2511   -2534.8916    621.72374    12465.164 
   19500    318.32343    250.15224   -3005.0748   -2531.5928    653.82713    12465.633 
   19550    316.07363    250.08842   -3002.9474   -2532.8118    762.27471    12466.319 
   19600    322.18806    250.36221   -3012.0738   -2532.8435     462.0224    12467.254 
   19650    312.81611    250.09063   -3003.0211   -2537.7309    649.94644    12468.326 
   19700    323.94668    250.54953   -3018.3177   -2536.4715    217.56635    12469.577 
   19750    318.55017    250.34882   -3011.6274   -2537.8082    360.11015    12470.836 
   19800    314.18463    250.10811   -3003.6036   -2536.2777    558.60693    12472.138 
   19850    323.36264    250.36261    -3012.087   -2531.1096     278.2169    12473.588 
   19900    319.05101    250.21472   -3007.1572    -2532.593    477.16171    12475.053 
   19950    304.68603    249.80778   -2993.5926   -2540.3952    1029.4608    12476.661 
   20000    307.86947    249.86212   -2995.4041   -2537.4716    971.35884    12478.675 
   20050    299.45476    254.54081   -2984.6936   -2539.2774    1107.5451    12481.129 
   20100    319.49753    255.31579   -3010.5264    -2535.298    210.50441     12484.02 
   20150    320.94623    255.32696   -3010.8988   -2533.5156    -74.84154     12486.95 
   20200    316.01342    255.18488   -3006.1628   -2536.1168    115.19618    12489.705 
   20250    309.40588    254.95604   -2998.5346   -2538.3168    351.17737    12492.397 
   20300    311.12246    255.06269   -3002.0898   -2539.3187    185.15992    12495.145 
   20350    306.80159    254.98344   -2999.4481    -2543.104    259.97031    12497.885 
   20400     300.3494    254.82286   -2994.0954   -2547.3484    458.29439     12500.64 
   20450    310.49128    255.18689   -3006.2296   -2544.3973    85.551211    12503.489 
   20500    314.37082    255.43298   -3014.4325   -2546.8297   -173.02417    12506.284 
   20550    312.43457    255.32388   -3010.7959   -2546.0732   -231.74272    12508.865 
   20600    316.16603    255.47847   -3015.9491   -2545.6761    -380.9438    12511.165 
   20650    298.18235    254.86961   -2995.6537   -2552.1301    203.34921    12513.167 
   20700    307.67388    255.23366   -3007.7886   -2550.1471   -110.22419    12515.077 
   20750    300.94791    255.08587   -3002.8623   -2555.2251   -9.0583608    12516.811 
   20800    284.91686    254.68864   -2989.6212    -2565.829    409.44462    12518.437 
   20850    299.62787    255.20567   -3006.8556   -2561.1819   -116.02631    12520.106 
   20900    303.57812    255.45728   -3015.2426   -2563.6931   -397.96031    12521.594 
   20950    284.89702    254.78746   -2992.9153   -2569.1526    51.802823    12522.777 
   21000    291.89978    255.10217   -3003.4056   -2569.2268   -349.23556     12523.81 
   21050    293.97064    260.22206   -3007.4021    -2570.143   -458.19935    12524.545 
   21100    295.53707    260.29965   -3009.9882   -2570.3992   -436.73032    12524.898 
   21150    303.09364    260.70598   -3023.5325   -2572.7037   -687.80462    12524.872 
   21200    299.35604    260.55572   -3018.5241   -2573.2547   -526.04689    12524.341 
   21250    286.98212    260.17307   -3005.7689   -2578.9047   -212.99908    12523.396 
   21300    289.02141    260.30949   -3010.3163   -2580.4189   -386.47135    12522.174 
   21350    284.56712     260.1465   -3004.8832   -2581.6112    -265.6741    12520.634 
   21400    297.12024    260.59209   -3019.7363   -2577.7924   -617.00048    12518.779 
   21450    298.27746    260.61418   -3020.4726   -2576.8075   -642.05737    12516.464 
   21500    291.94856    260.34494    -3011.498   -2577.2467   -377.33353     12513.67 
   21550    288.25238     260.3247   -3010.8233   -2582.0697   -220.16674    12510.499 
   21600     278.1616    259.95466   -2998.4887   -2584.7444    42.472322    12507.078 
   21650     282.0119    260.11906   -3003.9687   -2584.4974   -184.81817    12503.528 
   21700    297.55724    260.69099   -3023.0331   -2580.4393   -622.43702    12499.731 
   21750    295.29477    260.51714   -3017.2381   -2578.0095   -387.83246    12495.487 
   21800    295.91864    260.62768   -3020.9225    -2580.766   -311.93496    12490.854 
   21850    296.18675     260.6876   -3022.9201   -2582.3648    -204.7675      12485.9 
   21900    293.56151    260.55096   -3018.3652   -2581.7147    5.1711034      12480.7 
   21950    293.67705    260.57863   -3019.2875   -2582.4652    35.458574     12475.33 
   22000     294.1193    260.64916   -3021.6387   -2584.1585    84.575321    12469.819 
   22050    283.45709    255.22009   -3007.3365   -2585.7155    425.83223    12464.243 
   22100     303.7757    256.01461   -3033.8204   -2581.9771   -280.05217     12458.67 
   22150    297.18147    255.75074   -3025.0246   -2582.9897    21.621853    12452.831 
   22200    302.55659    256.00066   -3033.3552   -2583.3252    26.470562    12446.817 
   22250    300.87083    255.98219   -3032.7395    -2585.217    179.60063    12440.669 
   22300    295.37666    255.71179   -3023.7265   -2584.3761    418.44873    12434.449 
   22350    310.37851    256.30057   -3043.3523   -2581.6878    -11.80575    12428.245 
   22400    301.83646    255.94713   -3031.5711   -2582.6123    374.87267    12421.914 
   22450    298.36035    255.80953   -3026.9842   -2583.1958    541.73843    12415.615 
   22500    293.93428    255.63141   -3021.0471   -2583.8421    637.01975     12409.46 
   22550    288.56697    255.48735   -3016.2448   -2587.0233    783.67704    12403.491 
   22600    295.59774    255.69822   -3023.2741   -2583.5949    640.95981    12397.788 
   22650    307.71988    256.18222   -3039.4074   -2581.6974     286.4442    12392.262 
   22700    310.41738    256.24212   -3041.4041   -2579.6817    358.27862    12386.741 
   22750    295.90927    255.78179   -3026.0598   -2585.9172    859.40771    12381.276 
   22800    298.27478    255.83291   -3027.7636   -2584.1025    789.69276    12376.085 
   22850    297.44324    255.86854   -3028.9512   -2586.5269    790.75791    12371.175 
   22900    310.30713    256.33142   -3044.3807   -2582.8224    427.69362    12366.523 
   22950    294.93584    255.72363   -3024.1211   -2585.4264    931.09171    12362.016 
   23000    301.33197    256.01527   -3033.8422   -2585.6337    743.35963      12357.8 
   23050     298.0105    260.89105   -3029.7018   -2586.4338    840.21907    12353.882 
   23100    304.51308    261.13664    -3037.888   -2584.9479     614.8903     12350.26 
   23150    303.95334    261.08071   -3036.0237   -2583.9162    666.98339    12346.869 
   23200    304.28378    261.13947   -3037.9823   -2585.3832    813.57009    12343.701 
   23250    287.64482    260.45282   -3015.0939    -2587.244    1494.9734    12340.881 
   23300    305.40466    261.13082   -3037.6941   -2583.4278    876.32314    12338.682 
   23350    298.74961    260.94867   -3031.6223   -2587.2549    1060.8469    12336.901 
   23400    300.78189    260.98168   -3032.7225   -2585.3323    1117.0767    12335.566 
   23450    299.86292    260.89634    -3029.878   -2583.8547    1164.9692    12334.727 
   23500    302.31564    261.06457   -3035.4858   -2585.8142    1023.9311    12334.389 
   23550    303.31285    261.10964   -3036.9879   -2585.8331    869.99204    12334.507 
   23600    306.86231    261.20288   -3040.0961   -2583.6616    649.33885    12334.998 
   23650    309.67612    261.30051   -3043.3503   -2582.7306    590.73097    12335.752 
   23700    298.49208    261.00612   -3033.5374    -2589.553    1040.5401    12336.741 
   23750    290.86082    260.71258   -3023.7525   -2591.1191    1338.6069    12338.197 
   23800    296.32736    260.92973    -3030.991   -2590.2265     1095.936    12340.275 
   23850    286.58357    260.50876   -3016.9587   -2590.6874    1479.5343    12342.912 
   23900    287.41773    260.41352    -3013.784   -2586.2719    1524.5142    12346.269 
   23950    296.66198    260.72436   -3024.1455   -2582.8833    1167.4706    12350.368 
   24000    304.96653    261.09564   -3036.5214   -2582.9068    755.49419    12355.044 
   24050    313.86089    261.46947   -3048.9824   -2582.1381    287.70718    12360.054 
   24100    307.37122    261.15627   -3038.5423   -2581.3509    418.45106    12365.173 
   24150    290.96732    260.49204   -3016.4013   -2583.6094    891.75664    12370.472 
   24200    297.92007    260.76024   -3025.3413   -2582.2078    593.77866    12376.152 
   24250    299.09064    260.82162   -3027.3874   -2582.5127    445.59715    12382.113 
   24300    301.55328    260.93985   -3031.3283   -2582.7907    320.50771    12388.238 
   24350    301.89537    260.99905   -3033.3018   -2584.2553    246.21441    12394.472 
   24400    305.20658    261.08171    -3036.057   -2582.0853    77.907374    12400.788 
   24450     313.6795    261.38417   -3046.1391   -2579.5646   -186.21228    12407.059 
   24500    293.69651      260.608   -3020.2665   -2583.4152    566.10962    12413.215 
   24550    283.86978    260.22752   -3007.5839   -2585.3491    847.58994    12419.602 
   24600    292.23594    260.56005   -3018.6682   -2583.9894    420.76967    12426.359 
   24650    297.92384    260.73007   -3024.3357   -2581.1966    137.56396    12433.315 
   24700    307.43938    260.90786    -3030.262   -2572.9692   -121.63113    12440.277 
   24750     295.9501    260.41799   -3013.9329   -2573.7296    311.19457    12447.155 
   24800    306.71479    260.81737   -3027.2456   -2571.0306   -68.845417      12454.1 
   24850     300.1084    260.55815   -3018.6051   -2572.2166    90.322273    12460.972 
   24900    290.96883    260.20619   -3006.8729   -2574.0788    433.23363    12467.843 
   24950    306.72661    260.80443   -3026.8144   -2570.5818   -74.683392    12474.856 
   25000     306.1164    260.79011   -3026.3369    -2571.012   -100.09488    12481.788 
   25050    291.69035    260.22308    -3007.436   -2573.5687    418.71211     12488.62 
   25100    285.04757    259.96565   -2998.8551   -2574.8685    587.30829     12495.62 
   25150    290.24506    260.17838   -3005.9461   -2574.2285    284.11156    12502.869 
   25200    282.87419    259.79961   -2993.3203   -2572.5664    425.45764    12510.256 
   25250    289.34722    259.99185   -2999.7282   -2569.3461     140.4417    12517.801 
   25300    288.99527     259.8651   -2995.5033   -2565.6448    125.76284    12525.404 
   25350    289.64213    259.80512   -2993.5039   -2562.6832     89.74546    12533.016 
   25400    286.89725    259.60847    -2986.949   -2560.2111    168.31523    12540.632 
   25450    288.68782    259.63868   -2987.9559   -2558.5547     63.11797    12548.286 
   25500    299.46605    260.11429   -3003.8097   -2558.3766   -448.99253    12555.872 
   25550    283.54512    259.53396   -2984.4654   -2562.7135   -78.236086    12563.206 
   25600     298.2846    260.01794   -3000.5979   -2556.9221   -612.80116    12570.367 
   25650    304.64983    260.12336   -3004.1119   -2550.9684   -862.14085    12577.125 
   25700    292.82587    259.66125   -2988.7084   -2553.1521   -443.68304    12583.349 
   25750    293.24839    259.63513   -2987.8377   -2551.6529   -412.19745    12589.223 
   25800    291.99052    259.43608   -2981.2028   -2546.8891    -285.3997    12594.788 
   25850    291.25043    259.38037   -2979.3456   -2546.1326   -162.65123    12600.098 
   25900    296.89332    259.55006    -2985.002   -2543.3957   -293.35304    12605.226 
   25950    300.55824    259.67425   -2989.1416    -2542.084   -381.28421    12610.088 
   26000    296.51287    259.42427    -2980.809   -2539.7686   -221.73381    12614.659 
   26050    302.25586    264.57957   -2985.9857    -2536.403   -429.54503    12618.993 
   26100    293.80842    264.23027   -2974.3422   -2537.3244   -133.99444    12623.025 
   26150    286.89081    263.99163   -2966.3877   -2539.6593    96.609486    12626.902 
   26200    288.44858    263.95115   -2965.0382   -2535.9928    43.855874    12630.744 
   26250    285.59597    263.81604   -2960.5348   -2535.7324    133.46225    12634.526 
   26300    286.17523    263.82785   -2960.9284   -2535.2644    77.959584    12638.305 
   26350    293.68997    264.03877    -2967.959   -2531.1174   -176.77216    12642.045 
   26400    293.04803    263.92596   -2964.1988    -2528.312   -58.118917    12645.617 
   26450    289.91826     263.6896   -2956.3201   -2525.0887    80.338401    12649.083 
   26500      295.165    263.82135   -2960.7118   -2521.6762    -145.3705    12652.478 
   26550     287.3157    263.40571    -2946.857   -2519.4967    132.96928    12655.737 
   26600    295.99195    263.58292   -2952.7639   -2512.4983   -10.463612    12658.971 
   26650    296.05623    263.63936   -2954.6453   -2514.2841     60.69581    12662.126 
   26700    291.99747    263.47425   -2949.1417   -2514.8176    182.94377    12665.254 
   26750    294.01312    263.50734   -2950.2447   -2512.9224    7.0341943    12668.406 
   26800    290.80194    263.37996   -2945.9986   -2513.4528    45.485997    12671.483 
   26850     291.3399    263.44745   -2948.2485   -2514.9024    3.7505938    12674.487 
   26900    297.24676    263.64681   -2954.8936   -2512.7615   -154.86976    12677.398 
   26950    303.89746    263.87196   -2962.3986   -2510.3741   -389.98113    12680.137 
   27000    318.63943    264.34123   -2978.0409   -2504.0889   -864.60139    12682.535 
   27050     300.2096    263.54432   -2951.4772   -2504.9382   -185.67414    12684.396 
   27100     299.9328    263.49979    -2949.993   -2503.8657   -72.685048    12685.996 
   27150    301.78994    263.55157    -2951.719   -2502.8293   -75.211062    12687.446 
   27200    298.91862    263.34895   -2944.9651   -2500.3463    84.220199    12688.756 
   27250    293.36216    263.10941   -2936.9803   -2500.6263    276.18624    12690.025 
   27300    295.10743    263.20317   -2940.1058   -2501.1559    178.37386    12691.339 
   27350    302.18256     263.4383   -2947.9433   -2498.4697   -7.2223274    12692.645 
   27400    303.31496    263.49281   -2949.7605   -2498.6025   -34.117738    12693.864 
   27450    315.97427    264.01236   -2967.0786   -2497.0909   -461.00842    12694.911 
   27500    303.51227    263.51827   -2950.6089   -2499.1574   -113.46655    12695.626 
   27550    301.18246    263.34492   -2944.8307   -2496.8446    13.612318    12696.169 
   27600     310.9536    263.60295   -2953.4316   -2490.9117   -203.30978    12696.589 
   27650    313.60509     263.8052   -2960.1733   -2493.7095   -295.24412    12696.776 
   27700    308.97444    263.53928   -2951.3092   -2491.7331    -170.0394    12696.688 
   27750    310.85074    263.66108   -2955.3695   -2493.0025   -203.89284    12696.371 
   27800    299.15199    263.26057   -2942.0189    -2497.053    164.24239    12695.856 
   27850    298.77235    263.25689   -2941.8964   -2497.4952    130.07397      12695.3 
   27900    313.39286    263.77374   -2959.1245   -2492.9764   -211.68638    12694.681 
   27950     288.4599    262.90439   -2930.1462    -2501.084    667.01889    12693.899 
   28000    300.51747    263.27743    -2942.581   -2495.5841    281.24493    12693.296 
   28050     312.5291    263.70045   -2956.6818   -2491.8184    -300.2198    12692.734 
   28100    302.28752    263.27712   -2942.5705   -2492.9408   -98.257931    12691.925 
   28150    303.35258    263.32915   -2944.3052   -2493.0912   -168.05388    12690.933 
   28200    308.70913     263.5224   -2950.7466   -2491.5651   -262.66255    12689.715 
   28250    289.30727    262.82629    -2927.543   -2497.2203    441.41322    12688.269 
   28300    301.25353    263.23714   -2941.2381   -2493.1463    111.14448    12686.892 
   28350    313.80828    263.64137   -2954.7125   -2487.9464   -200.36031    12685.448 
   28400    306.33033    263.42043   -2947.3478   -2491.7046    20.838169    12683.789 
   28450    313.34485    263.72592   -2957.5308   -2491.4541   -278.62614    12681.976 
   28500    310.03493    263.66872    -2955.624   -2494.4705   -157.47891    12679.898 
   28550    305.58855    263.51763   -2950.5877   -2496.0479    31.840077    12677.595 
   28600    310.18888    263.70286    -2956.762   -2495.3795   -86.590942    12675.165 
   28650    300.83763    263.37465   -2945.8218   -2498.3487     182.2409    12672.575 
   28700    294.51686    263.09039   -2936.3464   -2498.2749    344.97135    12669.952 
   28750    294.54158    263.04192   -2934.7307   -2496.6224     379.8935    12667.398 
   28800    304.51193    263.47733   -2949.2445    -2496.306    191.22115     12664.91 
   28850    294.62955    263.14341   -2938.1138   -2499.8747    513.99285    12662.449 
   28900    307.00465    263.55527   -2951.8425   -2495.1963    83.113231    12660.087 
   28950    315.06944    263.84057   -2961.3524   -2492.7105   -173.50342    12657.643 
   29000    306.50104       263.52   -2950.6667   -2494.7696     206.3535        12655 
   29050     299.5353     258.3116   -2943.7199   -2498.1839     492.4887    12652.342 
   29100    321.88417    259.11516   -2970.5054    -2491.727   -220.42619    12649.752 
   29150    320.52144    259.03915   -2967.9716   -2491.2203   -191.94861    12646.929 
   29200    316.81423    258.95002   -2965.0008   -2493.7636   -13.731837    12643.826 
   29250    304.99366    258.58697   -2952.8992   -2499.2442    400.70741    12640.573 
   29300    311.95434    258.91106   -2963.7019   -2499.6935    129.94965    12637.356 
   29350    296.31228    258.39251   -2946.4171    -2505.675    560.88835    12634.112 
   29400    310.65452    258.95458   -2965.1525   -2503.0774    86.450496    12630.972 
   29450    313.29424    259.01806   -2967.2686   -2501.2672   -9.7162664    12627.761 
   29500    304.51528    258.88203   -2962.7343   -2509.7909    234.74423    12624.414 
   29550    314.84178    259.25457   -2975.1522    -2506.849     4.719116    12621.015 
   29600    302.69175    258.90389   -2963.4629   -2513.2319    350.66196    12617.509 
   29650     307.3292     259.1474   -2971.5798    -2514.451    78.111549    12614.018 
   29700    303.64663    258.95734   -2965.2446   -2513.5932    235.11437    12610.438 
   29750    290.36727    258.49545   -2949.8483    -2517.949    637.12333    12606.848 
   29800    298.33902    258.89101   -2963.0336   -2519.2769    261.42638    12603.423 
   29850     299.9941    259.05766   -2968.5888   -2522.3703    175.70599    12600.004 
   29900    293.52357    259.01267   -2967.0888   -2530.4948    357.53731    12596.545 
   29950     297.9079    259.17152   -2972.3838   -2529.2684      186.944    12593.112 
   30000    302.74208    259.39084   -2979.6946   -2529.3887    50.969459    12589.632 
   30050    301.38323    264.51988   -2983.9961   -2535.7114    121.94487    12586.056 
   30100    291.25366    264.13565   -2971.1883   -2537.9705    520.85956    12582.432 
   30150    293.82775    264.39065   -2979.6884   -2542.6419    369.73603     12578.93 
   30200    307.16558    264.89896   -2996.6321   -2539.7466   -178.81964    12575.488 
   30250     295.1375    264.40704   -2980.2345   -2541.2398    190.05456     12571.86 
   30300    294.33198    264.45739   -2981.9131   -2544.1166     180.1911    12568.169 
   30350    296.28348    264.52563   -2984.1876   -2543.4884    135.46079    12564.455 
   30400    295.32252    264.45984   -2981.9946   -2542.7247     223.0967    12560.689 
   30450    294.98756    264.43831   -2981.2771   -2542.5054    221.40142    12556.906 
   30500     296.4983     264.6241     -2987.47   -2546.4512    133.92543    12553.106 
   30550    291.83838    264.49649   -2983.2164   -2549.1289    323.50832     12549.27 
   30600    304.36306    265.04278   -3001.4261   -2548.7091   -90.524483    12545.438 
   30650    300.70312    264.90791   -2996.9303   -2549.6572    71.805494    12541.452 
   30700    284.79279    264.24358   -2974.7858   -2551.1782    696.10797    12537.399 
   30750    301.64541    264.89326   -2996.4421   -2547.7675    257.75683    12533.523 
   30800    288.21982    264.35286   -2978.4286   -2549.7234    752.44946    12529.728 
   30850    299.47324    264.95112   -2998.3707   -2552.9269      362.764    12526.154 
   30900    308.99843    265.35574   -3011.8581   -2552.2463     10.28359    12522.653 
   30950     302.8551    265.12355   -3004.1184   -2553.6444    274.60764    12519.056 
   31000     294.2412    264.81245   -2993.7483   -2556.0868     620.5004    12515.486 
   31050    290.78615    264.65547   -2988.5158   -2555.9934    755.34606    12512.125 
   31100    287.68892     264.6128   -2987.0934   -2559.1779    886.33986    12509.064 
   31150    290.40723    264.73346   -2991.1153   -2559.1566    723.43489    12506.365 
   31200    304.57644    265.22897   -3007.6324    -2554.598    133.41159    12503.939 
   31250    295.12176    264.86523   -2995.5077   -2556.5365    470.87043    12501.522 
   31300    298.57689    265.08012   -3002.6707   -2558.5602    370.73241    12499.206 
   31350     310.8039    265.45202   -3015.0672     -2552.77   -145.42046    12496.977 
   31400    305.68736    265.29159   -3009.7198    -2555.033   -66.007484    12494.559 
   31450    287.77637    264.58754   -2986.2514   -2558.2058    659.36993    12492.011 
   31500    293.43844    264.90079   -2996.6929   -2560.2254    551.76395    12489.659 
   31550    289.78096    264.66393   -2988.7978   -2557.7705    767.96373    12487.527 
   31600    285.83581    264.60326   -2986.7754   -2561.6163    824.61117    12485.704 
   31650    306.18706    265.34793   -3011.5977   -2556.1677    68.540943    12484.196 
   31700     309.0706    265.50441   -3016.8137   -2557.0946   -38.791484    12482.643 
   31750    295.79936    264.97335   -2999.1116   -2559.1325    575.48497    12480.996 
   31800    296.22455    265.05257   -3001.7523   -2561.1407    553.38926    12479.545 
   31850    302.44668    265.22613   -3007.5376    -2557.671    242.21865    12478.277 
   31900    305.82104    265.42226   -3014.0753   -2559.1897    159.17421    12477.018 
   31950    293.29756    264.82995   -2994.3318   -2558.0739     711.4974    12475.781 
   32000    301.82778    265.20916    -3006.972    -2558.026    499.37953    12474.782 
   32050    299.28584     265.1397   -3004.6568   -2559.4918    577.56867    12473.982 
   32100    301.36298    265.28452   -3009.4839   -2561.2293     431.2744    12473.365 
   32150     295.6084    265.06931   -3002.3102   -2562.6151    678.40844    12472.905 
   32200    297.65117    265.11729   -3003.9096    -2561.176    704.04139     12472.73 
   32250    296.09782    265.14519   -3004.8398   -2564.4167    642.68678    12472.857 
   32300    290.09167    264.87442    -2995.814   -2564.3246    773.36026     12473.26 
   32350    302.52279     265.2542   -3008.4734   -2558.4936    358.62426     12473.96 
   32400    296.93452    264.95884    -2998.628   -2556.9604     562.4088    12474.808 
   32450    295.87128     264.8733   -2995.7766   -2555.6905     678.5316    12475.875 
   32500    291.99165    264.75846   -2991.9487   -2557.6332    885.63852    12477.244 
   32550    288.82746    264.62718   -2987.5726   -2557.9637    992.12705    12479.032 
   32600    302.31502    265.17711   -3005.9036   -2556.2329    515.62494    12481.255 
   32650    308.88047    265.48971   -3016.3236   -2556.8873    222.88626    12483.683 
   32700    306.20492    265.38742   -3012.9139   -2557.4573    252.92037    12486.175 
   32750    293.29731    264.83933   -2994.6444   -2558.3868    699.95463    12488.758 
   32800    304.93609    265.28991   -3009.6637   -2556.0943    336.09059    12491.608 
   32850    303.74135    265.16277   -3005.4258   -2553.6336    398.71283    12494.599 
   32900    288.73123    264.60671   -2986.8903   -2557.4245    897.94491    12497.744 
   32950    300.06013    264.97603   -2999.2011   -2552.8844    498.29885    12501.277 
   33000    300.55701    265.01514   -3000.5047   -2553.4489    359.82195    12505.046 
   33050    306.01223    265.17021   -3005.6736   -2550.5036    128.58146    12508.932 
   33100    315.90369    265.53558   -3017.8528     -2547.97   -338.45587    12512.805 
   33150    306.19734    265.24332   -3008.1108   -2552.6655   -67.593236    12516.441 
   33200    292.78208    264.74416    -2991.472   -2555.9808    378.27096    12519.987 
   33250     303.4976    265.19793   -3006.5977    -2555.168    48.855914    12523.611 
   33300    292.28385    264.67659   -2989.2195   -2554.4694    461.11232    12527.235 
   33350    295.23159    264.68347   -2989.4491   -2550.3145    286.60565    12531.014 
   33400    298.40296    264.91718   -2997.2394   -2553.3876    45.957378    12534.877 
   33450    293.06522    264.63961    -2987.987   -2552.0747    292.32044    12538.718 
   33500     295.8302    264.73438    -2991.146    -2551.121    327.42299    12542.631 
   33550     282.9566     264.1435   -2971.4502   -2550.5737     805.4546    12546.691 
   33600    287.72682    264.31777    -2977.259   -2549.2871     515.6245     12551.09 
   33650    300.10126    264.70829   -2990.2764   -2543.8985   -38.243004    12555.708 
   33700    304.76661    264.87346   -2995.7819   -2542.4647   -169.46786    12560.248 
   33750    312.37424    265.10414   -3003.4714   -2538.8384   -309.08262    12564.617 
   33800    308.33804    264.96052   -2998.6839   -2540.0544    -115.0865    12568.748 
   33850    297.85415    264.56788   -2985.5959   -2542.5604    193.67022    12572.746 
   33900    303.45238    264.74615   -2991.5384    -2540.176    57.504544    12576.752 
   33950    288.23136    264.06458   -2968.8192   -2540.0969     667.4485    12580.762 
   34000    296.77544    264.33469   -2977.8231   -2536.3921    352.21741    12585.022 
   34050    312.68997     264.8804   -2996.0133   -2530.9107   -359.15913    12589.395 
   34100    315.56973    264.78818   -2992.9393   -2523.5533   -417.05331    12593.522 
   34150    308.12897     264.4421   -2981.4032   -2523.0847   -15.221641    12597.348 
   34200    309.03938    264.33644   -2977.8812   -2518.2086    73.964375     12601.07 
   34250     312.1419    264.41994   -2980.6648   -2516.3774    2.3716697     12604.74 
   34300    307.92697    264.24603   -2974.8677   -2516.8497    194.27193    12608.337 
   34350    305.75034     264.1156     -2970.52   -2515.7395    366.48936    12611.969 
   34400    299.93397     263.8798   -2962.6599   -2516.5309     642.1498     12615.74 
   34450    302.13725    263.97647   -2965.8822   -2516.4759    577.69469     12619.78 
   34500    298.57324    263.80029   -2960.0096   -2515.9046    670.12382    12624.106 
   34550    310.24487    264.11945   -2970.6482   -2509.1825    337.15445    12628.697 
   34600    303.93376    263.87699   -2962.5664   -2510.4879    390.13772    12633.444 
   34650     314.5192    264.09809   -2969.9363   -2502.1128   -23.712488    12638.306 
   34700     309.5181    263.82492   -2960.8307    -2500.446    97.640202    12643.113 
   34750    298.66967    263.45314   -2948.4381   -2504.1897    413.42361    12647.926 
   34800    307.60633    263.79525   -2959.8415   -2502.3004    68.369358    12652.853 
   34850    317.02933    264.14242    -2971.414   -2499.8569   -381.39113    12657.753 
   34900    316.36147    264.11449   -2970.4829   -2499.9192    -455.9855    12662.366 
   34950    311.49395    263.87271   -2962.4235   -2499.0999   -246.32681    12666.639 
   35000    305.82602    263.55521   -2951.8402   -2496.9472    76.841141    12670.702 
   35050    309.82888    263.66346   -2955.4488   -2494.6018    77.754027    12674.693 
   35100    301.45465    263.31619    -2943.873   -2495.4821    348.81951     12678.66 
   35150    296.50347    263.20796   -2940.2654   -2499.2389    398.21143    12682.732 
   35200    305.36208    263.52527   -2950.8423   -2496.6393   -31.925478    12686.939 
   35250    313.42431    263.66591   -2955.5303   -2489.3354   -332.39776    12691.045 
   35300    313.36648    263.69572   -2956.5241   -2490.4152   -343.25262    12694.869 
   35350    311.56894    263.63294   -2954.4313   -2490.9961   -335.53764     12698.39 
   35400    310.36047    263.61157    -2953.719   -2492.0813   -470.13333    12701.625 
   35450    309.53916    263.55998   -2951.9993   -2491.5833   -493.06933    12704.495 
   35500    313.74864    263.66076   -2955.3588   -2488.6815   -570.47798    12706.965 
   35550    315.70092    263.82561   -2960.8536   -2491.2724   -600.84195    12708.996 
   35600    302.81248     263.2656   -2942.1866    -2491.776    -130.5671    12710.613 
   35650    315.75805    263.68403   -2956.1343   -2486.4681   -518.24994    12711.986 
   35700    317.36464    263.70077   -2956.6922   -2484.6364   -553.75785    12712.958 
   35750    305.09538    263.28325   -2942.7751   -2488.9688   -108.86367    12713.515 
   35800    298.71756     263.1256   -2937.5199   -2493.2002    70.743363    12713.884 
   35850    297.10068    263.07157   -2935.7189   -2493.8041     66.71828    12714.167 
   35900    300.69013    263.19318   -2939.7727   -2492.5189   -68.275766    12714.372 
   35950    302.16128    263.30712   -2943.5708   -2494.1288     -132.776    12714.436 
   36000    301.88876    263.23494   -2941.1648   -2492.1282   -20.799263    12714.315 
   36050    302.36849    263.17343   -2939.1142    -2489.364    54.684656    12714.054 
   36100    302.57842    263.26756   -2942.2519   -2492.1894   -111.57301    12713.689 
   36150    315.18102    263.76641   -2958.8804   -2490.0725   -687.31346    12713.108 
   36200     302.5431    263.32209   -2944.0695   -2494.0596   -363.26235    12712.058 
   36250     309.9613    263.63387   -2954.4623   -2493.4183   -563.66013    12710.622 
   36300     299.4874    263.17168   -2939.0561   -2493.5913   -149.51203    12708.781 
   36350    301.18228    263.35245   -2945.0817   -2497.0959   -206.28372    12706.684 
   36400     311.4504    263.80467   -2960.1558   -2496.8969    -523.1516    12704.312 
   36450    309.14315    263.72343   -2957.4477   -2497.6207   -432.02526    12701.539 
   36500    311.30227    263.85702   -2961.9006   -2498.8621    -500.0439     12698.35 
   36550    306.13758    263.66248    -2955.416   -2500.0595   -338.42204    12694.746 
   36600     310.7005    263.87752    -2962.584   -2500.4405   -513.66829    12690.786 
   36650    303.28422    263.56347   -2952.1155   -2501.0032    -231.9171    12686.395 
   36700    297.32495    263.32315   -2944.1051   -2501.8568    31.149122     12681.73 
   36750    293.18074    263.32584   -2944.1946   -2508.1105    114.76865    12676.925 
   36800    305.03442    263.88165   -2962.7217   -2509.0061   -363.84329    12672.009 
   36850    310.39076    264.05668   -2968.5561   -2506.8733   -548.67614    12666.761 
   36900    297.74205     263.6538   -2955.1267    -2512.258   -20.435085    12661.075 
   36950    289.82504    263.45192   -2948.3972   -2517.3044    301.18263    12655.232 
   37000    296.65038    263.84583   -2961.5276   -2520.2827    67.016262    12649.374 
   37050     293.8883    263.76715   -2958.9052   -2521.7686    106.35223    12643.428 
   37100    301.73351    264.19771   -2973.2571   -2524.4514   -296.56079     12637.38 
   37150    298.54698    264.08544   -2969.5148   -2525.4488   -246.09737    12631.045 
   37200    291.21233    263.84047   -2961.3489   -2528.1927    5.8083721    12624.428 
   37250    299.51457    264.14311    -2971.437   -2525.9318   -269.47644    12617.638 
   37300    308.71777    264.56546   -2985.5153    -2526.321   -586.27559    12610.524 
   37350    302.33936    264.47171   -2982.3904   -2532.6835   -349.52821    12602.943 
   37400    284.54638    263.85433   -2961.8111   -2538.5699    344.79554    12595.044 
   37450    287.57615    264.05239    -2968.413   -2540.6652    270.73223    12587.156 
   37500    298.42408    264.47501   -2982.5004   -2538.6172   -125.21867    12579.266 
   37550    301.07701    264.69033   -2989.6776   -2541.8484   -211.05908    12571.163 
   37600    301.85241    264.76267    -2992.089   -2543.1064   -184.55335    12562.792 
   37650    297.33974    264.63202   -2987.7341   -2545.4638   -26.207529    12554.175 
   37700    302.10768    264.95073   -2998.3577   -2548.9954   -205.11454    12545.363 
   37750    300.93429    264.99377   -2999.7924   -2552.1754   -160.07924    12536.303 
   37800    295.17783    264.81656   -2993.8852   -2554.8305    155.45822    12527.018 
   37850    291.56192    264.63039   -2987.6796   -2554.0033    439.69853    12517.677 
   37900    295.27605    264.78726   -2992.9087   -2553.7079    321.59762    12508.421 
   37950    300.77244    265.07178   -3002.3927   -2555.0164    121.57698    12499.186 
   38000    295.91217    264.90481   -2996.8271   -2556.6802    437.11148    12489.913 
   38050    299.33148    265.13097   -3004.3655   -2559.1326    412.09196    12480.736 
   38100    302.80211    265.33062   -3011.0206   -2560.6254    325.14248    12471.644 
   38150    291.56938    264.91166   -2997.0554   -2563.3681    867.50724    12462.621 
   38200    292.96623    264.99291   -2999.7638   -2563.9987    902.16136    12453.932 
   38250    307.64449    265.57785   -3019.2617   -2561.6639    387.09661    12445.604 
   38300    310.52775    265.63617   -3021.2055   -2559.3191     315.4251    12437.382 
   38350    300.07445    265.21427   -3007.1424   -2560.8044    777.77068    12429.226 
   38400    290.55503    264.98035   -2999.3451   -2567.1665    1170.5006    12421.364 
   38450    300.47034    265.47069   -3015.6895   -2568.7627     889.4771    12413.992 
   38500    300.25604    265.49452   -3016.4839   -2569.8758    915.86771    12407.021 
   38550    302.26308    265.52978   -3017.6592   -2568.0658    978.81187    12400.437 
   38600     302.8119    265.55857   -3018.6191   -2568.2094    983.61468    12394.287 
   38650    305.13427    265.62629   -3020.8765   -2567.0124     911.4554    12388.558 
   38700     308.8288    265.79263    -3026.421   -2567.0616    783.66437    12383.207 
   38750     297.4374    265.38765   -3012.9218   -2570.5062     1168.227    12378.188 
   38800    293.44424    265.21337   -3007.1124   -2570.6363    1301.0866    12373.695 
   38850     302.2503    265.62674   -3020.8915   -2571.3171    1011.9871    12369.807 
   38900    309.10363    265.86967   -3028.9891   -2569.2208    1009.1551    12366.367 
   38950    295.68311    265.40253   -3013.4175   -2573.6113    1554.9925    12363.413 
   39000    302.11386    265.67523   -3022.5077   -2573.1362    1263.0917    12361.174 
   39050    314.58425    266.15314   -3038.4381   -2570.5178    803.97789    12359.518 
   39100    304.32737     265.6948     -3023.16   -2570.4961    1150.2751    12358.246 
   39150    315.15631    266.19026   -3039.6753   -2570.9042    741.17792    12357.453 
   39200    314.23336    266.20792   -3040.2639   -2572.8656    825.37708    12356.996 
   39250    291.86889     265.3159     -3010.53   -2576.3971    1617.8705    12356.943 
   39300    318.33818     266.3903   -3046.3432   -2572.8393    712.99752     12357.56 
   39350    313.45192     266.1882   -3039.6066   -2573.3706     786.9608    12358.546 
   39400     305.0637    265.84981   -3028.3269   -2574.5678      1058.39    12359.885 
   39450    303.08383    265.82109   -3027.3697   -2576.5554    1123.4349      12361.7 
   39500    309.00994    266.04689   -3034.8962   -2575.2673    991.94928    12364.029 
   39550    308.08359    265.97938   -3032.6462   -2574.3952    1021.4295    12366.834 
   39600    303.04327    265.83357   -3027.7855   -2577.0316    1103.9505    12370.123 
   39650    294.00466     265.4942   -3016.4734   -2579.1638    1260.5686    12373.957 
   39700    286.26687    265.30767   -3010.2558   -2584.4555    1257.6533    12378.422 
   39750    294.37856     265.6297   -3020.9901   -2583.1243    877.20703    12383.483 
   39800    307.04468    265.99701   -3033.2338   -2576.5281    385.48079    12388.947 
   39850      307.844    266.03004   -3034.3347     -2576.44    266.96698    12394.564 
   39900    300.85646     265.7248   -3024.1602    -2576.659    502.96473     12400.27 
   39950    295.70519    265.66636    -3022.212   -2582.3729    592.87407    12406.154 
   40000    282.69682    265.20993   -3006.9977   -2586.5076    909.45015    12412.321 
   40050    295.89122    265.71397   -3023.7988   -2583.6831    389.42365     12418.89 
   40100    301.85595    265.88393   -3029.4642   -2580.4764    95.969408    12425.626 
   40150    301.52709    265.88401    -3029.467   -2580.9683    18.657897    12432.345 
   40200    298.37588    265.77679    -3025.893   -2582.0815    145.02571    12438.996 
   40250    283.53177    265.17648   -3005.8826   -2584.1506    637.89013    12445.691 
   40300    287.40012    265.32046   -3010.6819    -2583.196    421.69002    12452.627 
   40350    285.91266    265.21494   -3007.1647   -2581.8913    374.21366    12459.748 
   40400    279.26217    264.95838   -2998.6128   -2583.2315    507.40137    12467.026 
   40450    285.47442    265.20543   -3006.8476    -2582.226    226.01958      12474.5 
   40500    291.63195    265.53751    -3017.917   -2584.1366   -86.573374    12482.032 
   40550    293.57869    265.66206   -3022.0688   -2585.3928    -159.2943    12489.438 
   40600    274.05251    264.89509   -2996.5031   -2588.8707    485.51468    12496.732 
   40650    287.44014    265.38746   -3012.9154     -2585.37    -59.44891    12504.167 
   40700    297.70518    265.79932   -3026.6439     -2583.83   -502.11031    12511.511 
   40750    285.21559     265.3194   -3010.6466     -2586.41   -114.79443    12518.534 
   40800    284.95748     265.2655   -3008.8502   -2584.9975   -222.77286    12525.386 
   40850    295.29142    265.66871   -3022.2904   -2583.0668   -641.82948    12532.015 
   40900     277.2898    264.91595   -2997.1985   -2584.7509    30.820747    12538.271 
   40950    277.80312    264.86379   -2995.4596   -2582.2485    81.931739    12544.414 
   41000    277.79211    264.91512   -2997.1708   -2583.9761   -17.414494    12550.523 
   41050    279.56489    259.97093   -2999.0309   -2583.1993   -106.45862    12556.538 
   41100    282.06129    259.92228   -2997.4093   -2577.8645   -212.31748    12562.407 
   41150    292.38876    260.25613   -3008.5375   -2573.6314   -625.21432     12568.03 
   41200    291.01918    260.14004    -3004.668    -2571.799   -657.74957     12573.22 
   41250    287.57104    259.91962   -2997.3207   -2569.5805   -591.14731    12577.926 
   41300    297.54288    260.24109   -3008.0362   -2565.4637   -913.24987    12582.146 
   41350    289.38124    259.90031   -2996.6771   -2566.2444   -646.96324    12585.768 
   41400    289.27669    259.72331   -2990.7771   -2560.4999   -591.09762    12588.892 
   41450    303.44771    260.23075   -3007.6918   -2556.3364   -1137.9307    12591.542 
   41500    309.98612    260.40341   -3013.4471   -2552.3663   -1305.1104    12593.426 
   41550    294.11629    259.78005   -2992.6684   -2555.1927   -626.37938    12594.476 
   41600    296.89549    259.84088   -2994.6959   -2553.0864   -618.82874    12595.011 
   41650    307.09619    260.18728   -3006.2428   -2549.4605   -863.59733    12595.051 
   41700    287.87618    259.31423    -2977.141    -2548.947   -68.732788    12594.539 
   41750    284.88498    259.18256   -2972.7519   -2549.0071    180.51703     12593.82 
   41800    285.82726    259.06163   -2968.7209   -2543.5745    210.89317    12593.078 
   41850    302.09284    259.61073   -2987.0242    -2537.684   -286.16929    12592.283 
   41900    305.39755    259.69522   -2989.8405   -2535.5848   -371.87851    12591.229 
   41950    304.52347    259.60806   -2986.9352   -2533.9796   -379.81453    12589.849 
   42000    311.57202     259.8923     -2996.41   -2532.9702   -584.36337    12588.093 
   42050    302.84304    264.43625   -2981.2082   -2530.7521   -90.357424    12585.923 
   42100    303.12078    264.44272   -2981.4238   -2530.5547    83.379234    12583.551 
   42150    284.67924    263.68685   -2956.2285   -2532.7897    754.15248    12581.157 
   42200    298.03667    264.28419   -2976.1395   -2532.8326    362.03422    12578.993 
   42250    277.89859     263.4738   -2949.1268   -2535.7737    1040.7968    12577.022 
   42300    302.71307    264.44401    -2981.467   -2531.2043    132.82729    12575.441 
   42350    310.76461    264.72259   -2990.7531   -2528.5142    -188.1986     12573.86 
   42400    314.89718    264.86801   -2995.6004   -2527.2148   -302.17231    12572.044 
   42450    324.45523     265.2516   -3008.3866    -2525.784   -697.80738     12569.92 
   42500    318.05794    264.91001   -2997.0003   -2523.9132   -442.90716    12567.307 
   42550    317.83258    264.91892   -2997.2973   -2524.5454   -351.02076    12564.309 
   42600    315.85465    264.85485   -2995.1617   -2525.3519   -168.50078    12560.999 
   42650     309.9475    264.69025   -2989.6749   -2528.6514    190.45332    12557.472 
   42700    294.64393    264.10205   -2970.0682   -2531.8077    821.90452    12553.956 
   42750    295.23183    264.13716   -2971.2387   -2532.1038    732.04075    12550.762 
   42800    303.72211    264.39624   -2979.8748   -2528.1112    362.74631    12547.857 
   42850    299.74822    264.27207   -2975.7357   -2529.8829     383.0928    12545.078 
   42900    319.84312    265.03762    -3001.254   -2525.5116   -274.61158    12542.338 
   42950     316.3328     264.8297   -2994.3232   -2523.8021     4.546991    12539.371 
   43000    307.80573    264.50185   -2983.3949   -2525.5572    468.26953    12536.298 
   43050    298.94093    264.15387   -2971.7958   -2527.1438    852.48809    12533.367 
   43100    305.70964    264.47944   -2982.6481   -2527.9281     532.0548    12530.775 
   43150    308.04945    264.52218   -2984.0726   -2525.8724    446.73995    12528.383 
   43200    291.35546    263.95895   -2965.2983   -2531.9292    1015.4991    12526.164 
   43250    301.28899     264.3265   -2977.5499   -2529.4054    611.06344    12524.359 
   43300    307.66382    264.55921   -2985.3069   -2527.6802    345.32639    12522.802 
   43350    310.79024    264.64224   -2988.0747   -2525.7977    299.95423    12521.336 
   43400     301.2491    264.32694   -2977.5646   -2529.4794    600.70465    12519.964 
   43450    312.56737    264.87309   -2995.7695   -2530.8492    191.71107    12518.767 
   43500    313.66782    264.81459   -2993.8196   -2527.2625    170.71585    12517.595 
   43550    315.63327    264.96277   -2998.7591   -2529.2786    27.080715    12516.389 
   43600    303.77087    264.58853   -2986.2844   -2534.4483    356.21667    12515.121 
   43650    314.01184    265.08652   -3002.8841   -2535.8153    21.139505    12513.889 
   43700    304.93551    264.71479   -2990.4929   -2536.9244    256.95426    12512.628 
   43750     315.2626    265.07109   -3002.3696   -2533.4403    42.187211    12511.343 
   43800    297.68881    264.33724   -2977.9081   -2535.1186    716.90905    12510.029 
   43850    306.19609    264.76504    -2992.168   -2536.7245    388.04756     12508.94 
   43900    308.74602    264.92091   -2997.3638   -2538.1275    280.07738    12507.972 
   43950    306.53291    264.86746   -2995.5819   -2539.6375    324.64061    12507.071 
   44000    301.95239    264.86755    -2995.585   -2546.4537    324.04557    12506.248 
[...]
   89400     280.2778    251.27987   -3042.6623   -2625.7703   -111.87086     12391.11 
   89450     286.6881    251.51891   -3050.6302   -2624.2034   -278.81493    12396.454 
   89500    283.49981    251.34838    -3044.946   -2623.2615   -150.38763    12401.538 
   89550    284.51721    251.47444   -3049.1481   -2625.9504    -267.0128    12406.365 
   89600    286.57132    251.47041   -3049.0137   -2622.7606   -394.68026    12410.907 
   89650    286.81746    251.52965   -3050.9882    -2624.369   -483.09696    12415.097 
   89700    277.39011    251.10212   -3036.7374   -2624.1406    -83.10928    12418.888 
   89750    272.70371    250.89275   -3029.7585   -2624.1324    136.93939    12422.486 
   89800    287.26153    251.41112   -3047.0374   -2619.7577   -360.05327    12425.986 
   89850    295.42921    251.70558   -3056.8527   -2617.4241    -640.8939    12429.143 
   89900    293.09346    251.53693    -3051.231   -2615.2767   -564.90174    12431.808 
   89950    298.59354     251.5722   -3052.4066   -2608.2714   -672.07866    12433.979 
   90000    290.77806    251.21416   -3040.4721   -2607.9618   -397.06999    12435.668 
   90050    288.53716    251.17186    -3039.062   -2609.8849   -363.12192    12436.982 
   90100    271.79903    250.52318   -3017.4392   -2613.1587    170.04427    12437.975 
   90150    286.02604    250.98136   -3032.7119   -2607.2698   -218.94117     12438.86 
   90200    294.26252    251.30296   -3043.4321   -2605.7389   -497.26319    12439.495 
   90250    286.30279    251.04876   -3034.9586   -2609.1049   -310.71559    12439.736 
   90300    295.40906    251.32592   -3044.1973   -2604.7987    -595.4422    12439.611 
   90350    292.22796    251.08291    -3036.097   -2601.4301   -403.19547    12439.024 
   90400    287.52548    250.88551   -3029.5171   -2601.8447    -122.4473    12438.067 
   90450    296.79593    251.12952   -3037.6508   -2596.1893   -281.72031    12436.888 
   90500     296.0593    251.03356   -3034.4521   -2594.0863   -112.27264    12435.422 
   90550    291.68739      250.798   -3026.6002   -2592.7373    181.84222    12433.752 
   90600    299.94643    250.91525   -3030.5082   -2584.3607    31.937178    12432.015 
   90650    305.38706    251.12403   -3037.4678   -2583.2277   -194.78312    12430.138 
   90700    316.15486    251.43283    -3047.761   -2577.5046   -502.93185    12427.985 
   90750    309.56705    251.15553   -3038.5178   -2578.0603   -239.85004    12425.441 
   90800     305.6218    251.06954   -3035.6515   -2581.0622    -112.6125    12422.599 
   90850    299.32178    250.84659   -3028.2197   -2583.0013    108.57753    12419.551 
   90900    306.01945    251.09209   -3036.4029   -2581.2221   -37.298616    12416.401 
   90950    308.22378    251.13821   -3037.9405    -2579.481     7.358907    12413.083 
   91000    302.88553    250.83573   -3027.8578   -2577.3385    244.72651     12409.64 
   91050    306.57883     250.9564   -3031.8799   -2575.8671    141.59771    12406.154 
   91100     306.3158    250.88528   -3029.5095   -2573.8879    188.00243    12402.615 
   91150      307.766    250.97938   -3032.6461   -2574.8675    144.93194    12399.025 
   91200    312.27527    251.09639   -3036.5463   -2572.0605    152.88615    12395.349 
   91250    309.90379      250.975   -3032.5001   -2571.5417    379.42117    12391.636 
   91300    298.27168    250.58955   -3019.6516   -2575.9951     814.0173    12387.989 
   91350    301.47489    250.68295    -3022.765   -2574.3439    685.97026    12384.611 
   91400    307.08911    250.82409   -3027.4697   -2570.6979    514.13402    12381.468 
   91450    309.19432    250.92268   -3030.7559   -2570.8528    588.83286    12378.477 
   91500    306.95048     250.8883   -3029.6102   -2573.0446    688.63803    12375.686 
   91550     318.1707    251.29988   -3043.3293   -2570.0745    248.63143     12373.08 
   91600    313.24174    251.23398   -3041.1326   -2575.2092    334.68894    12370.491 
   91650    319.77659    251.34686   -3044.8955    -2569.252     252.5773    12367.914 
   91700    314.31554    251.14476   -3038.1585    -2570.638    441.44063     12365.35 
   91750    328.60774    251.68049   -3056.0165   -2567.2374   -48.310453    12362.833 
   91800    328.54336    251.66967   -3055.6558   -2566.9725    13.826159    12360.161 
   91850    308.84086     250.9875   -3032.9168   -2573.5394    741.97619    12357.367 
   91900    309.77356    251.08544   -3036.1814   -2575.4168    770.20285    12354.783 
   91950    309.68325    251.06354   -3035.4515   -2574.8211    786.57734    12352.485 
   92000     310.1612    251.02905   -3034.3016   -2572.9604    764.04302    12350.475 
   92050    318.82855    251.45268   -3048.4227   -2574.1894    406.31454    12348.714 
   92100    316.83381    251.43402   -3047.8006   -2576.5343    393.22166    12347.052 
   92150     315.2658    251.41044   -3047.0147   -2578.0807    448.58048    12345.445 
   92200    295.14721    250.66313   -3022.1042   -2583.0951    1106.8844    12343.979 
   92250    298.13023    250.76845   -3025.6149   -2582.1688    1018.7493    12342.932 
   92300    299.80529    250.77765   -3025.9218   -2579.9842    976.27056    12342.306 
   92350    310.52544    251.16027   -3038.6758   -2576.7928    623.48727    12342.043 
   92400    321.16652    251.73692   -3057.8973   -2580.1865    137.06787    12341.966 
   92450    303.79173    251.20907   -3040.3024   -2588.4352    645.83896     12341.87 
   92500    295.12351      250.899   -3029.9668    -2590.993    869.36846    12341.974 
   92550    315.31308    251.70684   -3056.8946   -2587.8903    113.54087    12342.373 
   92600    311.57786    251.61963   -3053.9877   -2590.5393    262.76958    12342.728 
   92650    304.30332     251.3292   -3044.3067   -2591.6786    516.12608    12343.073 
   92700    311.21704    251.60984   -3053.6613   -2590.7496    257.17676    12343.526 
   92750    300.18185    251.32183   -3044.0611   -2597.5633    545.05131    12344.015 
   92800    303.48699    251.47858    -3049.286   -2597.8721     382.0779    12344.628 
   92850    306.03129    251.53207    -3051.069   -2595.8707    319.55624    12345.308 
   92900     300.5256     251.3434   -3044.7801   -2597.7711    487.10827    12346.037 
   92950    310.78242    251.82279   -3060.7597   -2598.4944    12.613889     12346.85 
   93000     305.9136    251.66974   -3055.6579   -2600.6346    58.786393    12347.574 
   93050    301.96536    251.63395   -3054.4651   -2605.3146    43.899304    12348.157 
   93100    305.44553    251.78048   -3059.3495   -2605.0224    -110.6393    12348.591 
   93150    306.50002    251.87177   -3062.3922   -2606.4966    -117.1678    12348.824 
   93200    291.40051    251.27425    -3042.475   -2609.0388    484.55519    12348.887 
   93250    292.81466    251.39429   -3046.4763   -2610.9367     472.2835    12349.018 
   93300    292.39316    251.34826   -3044.9419   -2610.0292    506.47877    12349.272 
   93350    295.68369    251.54136   -3051.3786   -2611.5715    349.01449    12349.663 
   93400    301.11335    251.87215    -3062.405   -2614.5217    63.370224    12350.099 
   93450    306.27957    252.02734   -3067.5779   -2612.0102   -173.41017    12350.424 
   93500    305.76543    252.07593   -3069.1978   -2614.3949    -231.6269    12350.526 
   93550    303.90749    251.97962   -3065.9872   -2613.9478   -154.44182    12350.366 
   93600    300.05743    251.80398   -3060.1328   -2613.8201   -76.633451    12349.978 
   93650    298.60488    251.71724   -3057.2413   -2613.0892   -81.987324    12349.402 
   93700    293.29472    251.51587   -3050.5289   -2614.2752     180.1642    12348.644 
   93750     295.8728    251.64727   -3054.9089   -2614.8206     193.0767    12347.817 
   93800    296.09451    251.70472   -3056.8238   -2616.4057    131.76858    12346.952 
   93850    295.55932    251.76021   -3058.6737   -2619.0516    86.988135    12346.013 
   93900    298.75419     251.9143   -3063.8099   -2619.4357    28.820025    12344.976 
   93950    298.63034    251.92379   -3064.1263   -2619.9363   -50.223253    12343.813 
   94000    295.16197    251.77942   -3059.3139   -2620.2829   -28.767739    12342.475 
   94050    286.25865    246.44778   -3048.2593   -2622.4712    259.27889    12340.992 
   94100    302.26641    246.91349    -3063.783   -2614.1846   -146.09809     12339.46 
   94150    303.32425    247.00108   -3066.7027   -2615.5308   -93.518433    12337.707 
   94200    285.50597    246.39504   -3046.5013   -2621.8328     474.7748    12335.762 
   94250     297.8624    246.90978   -3063.6593   -2620.6115   -39.550001    12333.854 
   94300    306.99599    247.20016   -3073.3387   -2616.7055   -322.28216    12331.776 
   94350    308.14092     247.2772   -3075.9068   -2617.5705   -311.03878    12329.363 
   94400    297.14017    246.82569   -3060.8562   -2618.8827    45.083985    12326.642 
   94450    286.06644    246.37459   -3045.8198   -2620.3176     522.9119    12323.786 
   94500     299.5694    246.86992   -3062.3306   -2616.7438    184.75741     12321.02 
   94550    313.48428    247.37059   -3079.0197   -2612.7356   -232.32289    12318.186 
   94600    296.84346    246.84792   -3061.5972   -2620.0651     311.9724    12315.107 
   94650    300.10747    246.99707   -3066.5691    -2620.182    290.77743    12311.994 
   94700    293.10604    246.68172   -3056.0573   -2620.0843    555.94972    12308.901 
   94750    293.27783     246.7745   -3059.1501   -2622.9215    454.57537     12305.93 
   94800    294.42584    246.87828   -3062.6093   -2624.6732    359.28084    12303.051 
   94850    301.35329    247.09111   -3069.7037   -2621.4635    157.60911    12300.203 
   94900    301.85731    247.06438   -3068.8127   -2619.8228    116.31224    12297.278 
   94950    310.40435    247.46425   -3082.1417   -2620.4388    -203.9237     12294.23 
   95000     307.7467    247.39877    -3079.959   -2622.2091   -79.311229     12290.93 
   95050    301.57543    247.17359   -3072.4528   -2623.8822    285.83898    12287.409 
   95100    292.14484    246.88733   -3062.9108   -2628.3675    617.81109    12283.889 
   95150    289.00592    246.80687   -3060.2289   -2630.3545    745.68757    12280.543 
   95200    285.61576    246.73082   -3057.6939   -2632.8621    907.15337    12277.456 
   95250    296.23108    247.02054   -3067.3512     -2626.73    540.86529    12274.685 
   95300    305.86656    247.33417   -3077.8055   -2622.8522    255.09479    12272.037 
   95350    291.45822    246.84307   -3061.4355   -2627.9135    735.93877    12269.411 
   95400    303.95572     247.2532   -3075.1067   -2622.9956    317.57184    12266.972 
   95450    301.82809    247.18188   -3072.7293   -2623.7829    413.11126     12264.57 
   95500    303.31325    247.23557   -3074.5189   -2623.3634    491.33691    12262.231 
   95550    304.72095     247.2636   -3075.4532   -2622.2039    561.87375    12259.997 
   95600    289.26999    246.74348    -3058.116   -2627.8488    1103.8669    12257.921 
   95650    294.76557    246.97918   -3065.9728   -2627.5313    872.88911     12256.26 
   95700    310.90969    247.59089    -3086.363   -2623.9084    233.82448    12254.904 
   95750    305.85966    247.38908   -3079.6359   -2624.6928     333.4808    12253.555 
   95800    300.23525    247.18679   -3072.8931   -2626.3159     574.1753    12252.236 
   95850     303.8625    247.29347   -3076.4491   -2624.4766    529.35685    12251.055 
   95900    300.28517    247.14386    -3071.462   -2624.8106    652.94414    12250.021 
   95950    312.89985    247.61849   -3087.2829   -2621.8681    251.47358    12249.132 
   96000    307.99797     247.4741   -3082.4701   -2624.3464    468.07753    12248.259 
   96050    309.36627    247.42403    -3080.801   -2620.6421     509.1415    12247.478 
   96100    306.58863    247.41352   -3080.4506   -2624.4233    517.11378    12246.799 
   96150    301.15322    247.28299   -3076.0997   -2628.1571    638.39398    12246.249 
   96200    308.98889    247.46446   -3082.1487   -2622.5511    477.54178     12245.89 
   96250    303.29038    247.28443   -3076.1475   -2625.0261    614.24118    12245.648 
   96300     304.1584    247.31649   -3077.2163   -2624.8037     542.4046    12245.562 
   96350    302.88747    247.33562   -3077.8541   -2627.3319    569.65406     12245.62 
   96400    301.37212    247.28942   -3076.3139   -2628.0457    620.17741    12245.818 
   96450    296.18332    247.07559   -3069.1864   -2628.6362    801.71094    12246.202 
   96500    300.26712    247.27612   -3075.8706    -2629.246    552.16419    12246.847 
   96550    302.84945       247.28   -3075.9999   -2625.5343    398.39086    12247.646 
   96600    299.45228    247.20294   -3073.4313   -2628.0187    473.52203    12248.515 
   96650    293.07533    247.08423   -3069.4742   -2633.5468    641.79886    12249.491 
   96700    290.81393    246.98207   -3066.0689   -2633.5052    678.77248    12250.668 
   96750    308.38662    247.76194   -3092.0648   -2633.3631   -32.529746    12252.025 
   96800    316.93167    248.17275   -3105.7582   -2634.3464   -414.68167    12253.239 
   96850    308.66513    247.96658    -3098.886   -2639.7701   -202.88726    12254.089 
   96900    302.02044    247.75895    -3091.965   -2642.7325    45.438482    12254.653 
   96950    279.40936    247.01319   -3067.1063    -2651.506    690.32535    12255.127 
   97000    287.71421    247.47076   -3082.3587   -2654.4056    216.44501    12255.754 
   97050    290.54105    247.59895   -3086.6317   -2654.4739   -45.140055    12256.361 
   97100    286.13392    247.53388   -3084.4626   -2658.8601    85.894457    12256.806 
   97150    286.20901    247.57923   -3085.9744   -2660.2602    21.952386     12257.14 
   97200    292.47383    247.81406   -3093.8019   -2658.7692   -281.22919    12257.312 
   97250    281.38496    247.53108   -3084.3693   -2665.8305   -52.054766    12257.208 
   97300    280.74791    247.51867   -3083.9557   -2666.3644   -60.379946     12256.92 
   97350    293.92195    248.05058   -3101.6861   -2664.4995   -464.53421    12256.427 
   97400     290.5201    247.95617    -3098.539   -2666.4123   -262.47731    12255.561 
   97450    288.58711    248.00547   -3100.1822   -2670.9308    -138.1499    12254.389 
   97500    280.24786    247.72675   -3090.8917   -2674.0442    78.601717     12252.99 
   97550     275.8521    247.55089   -3085.0297   -2674.7206    174.76511    12251.476 
   97600    284.46688    247.89687   -3096.5622   -2673.4393   -142.74487     12249.88 
   97650    281.23434    247.82148   -3094.0493   -2675.7345   -143.01693    12248.083 
   97700    282.06961    247.88027    -3096.009   -2676.4518   -202.86284    12246.047 
   97750    273.05877    247.61518   -3087.1727   -2681.0184    110.47801    12243.757 
   97800    277.63308    247.85714   -3095.2379   -2682.2797   -15.905091    12241.355 
   97850      283.894     248.0556   -3101.8533   -2679.5825   -215.00438    12238.792 
   97900    283.73119    247.96654   -3098.8848   -2676.8562   -224.99982    12235.961 
   97950    287.52165    248.17492   -3105.8305   -2678.1638   -394.39382    12232.829 
   98000    282.04565    247.95182    -3098.394   -2678.8725   -167.44573     12229.35 
   98050    289.52039    248.20416   -3106.8054   -2676.1658   -320.94069    12225.587 
   98100    285.24441    248.06824   -3102.2748   -2677.9953   -110.53477    12221.504 
   98150    288.91085    248.13613   -3104.5377   -2674.8047   -140.86683    12217.187 
   98200    283.63134     248.0338   -3101.1267   -2679.2466    11.845304    12212.628 
   98250    283.46975    247.99513   -3099.8376   -2678.1978    38.427198    12207.908 
   98300    292.08153     248.3251   -3110.8367   -2676.3875   -176.47547    12203.038 
   98350    289.53524    248.19407   -3106.4689   -2675.8072    62.504266    12197.927 
   98400    285.86609    248.05488   -3101.8293   -2676.6252    294.31577    12192.691 
   98450    294.02985     248.3463   -3111.5432   -2674.1961    87.128623     12187.42 
   98500    275.31191    247.60079   -3086.6932   -2677.1875     866.3284    12182.083 
   98550    275.96432    247.57366   -3085.7886   -2675.3126    971.96587    12177.022 
   98600    302.88249    248.58629   -3119.5431   -2669.0283    161.28706    12172.278 
   98650    294.38264    248.26316    -3108.772   -2670.9001      629.382    12167.521 
   98700    276.82057    247.55441    -3085.147   -2673.3974    1343.1195    12162.964 
   98750     294.9699    248.12349   -3104.1165   -2665.3711     740.4046    12158.883 
   98800    291.06835    248.01214   -3100.4046   -2667.4625    836.66562    12155.087 
   98850    292.05136    248.09984   -3103.3279   -2668.9236    865.19897    12151.558 
   98900    296.05128    248.21917   -3107.3058    -2666.952    758.28676    12148.342 
   98950    307.12025    248.60236   -3120.0787   -2663.2606    440.03242    12145.362 
   99000    302.28003    248.30443   -3110.1477   -2660.5291    794.64779    12142.485 
   99050    298.50997    243.10234   -3103.4112   -2659.4002    1052.4015    12139.863 
   99100    303.06175    243.18216    -3106.072   -2655.2906    1023.2936    12137.599 
   99150    280.15855    242.33903   -3077.9677   -2661.2531    1743.7768    12135.771 
   99200    316.86725    243.57295   -3119.0984   -2647.7824    519.13919    12134.586 
   99250    312.69609     243.3613   -3112.0434   -2646.9317    547.25103    12133.589 
   99300    302.78034    243.05725   -3101.9085   -2651.5457    978.86839     12132.72 
   99350    293.93014    242.70329   -3090.1098    -2652.911    1369.6158    12132.213 
   99400    302.38601    242.95526   -3098.5085   -2648.7322    1182.2434    12132.227 
   99450    295.67651    242.72724   -3090.9081   -2651.1117    1391.6753    12132.736 
   99500    311.71441    243.25859   -3108.6197   -2644.9681    906.75409    12133.779 
   99550    306.56235    243.09676   -3103.2252    -2647.237    1014.9785    12135.188 
   99600    302.84475    242.95032    -3098.344   -2647.8853    1131.4887    12136.975 
   99650    303.74879    242.95266   -3098.4221   -2646.6188    1150.4809      12139.2 
   99700    299.98376    242.81568    -3093.856   -2647.6528    1268.0011    12141.895 
   99750    299.18087    242.64457   -3088.1522   -2643.1433    1293.5472    12145.106 
   99800    290.85164    242.41651   -3080.5503   -2647.9305    1503.1427    12148.863 
   99850    296.22461    242.63919   -3087.9731   -2647.3614    1261.1054     12153.26 
   99900    303.98205    242.82063   -3094.0211   -2641.8709    954.82771    12158.202 
   99950    305.97836    242.89691   -3096.5637   -2641.4441    853.21827    12163.523 
  100000     313.7091    243.18196   -3106.0653   -2639.4468    631.21773    12169.132 
Loop time of 26.7196 on 1 procs for 100000 steps with 500 atoms

Performance: 323.358 ns/day, 0.074 hours/ns, 3742.568 timesteps/s
99.8% CPU use with 1 MPI tasks x 1 OpenMP threads

MPI task timing breakdown:
Section |  min time  |  avg time  |  max time  |%varavg| %total
---------------------------------------------------------------
Pair    | 21.619     | 21.619     | 21.619     |   0.0 | 80.91
Bond    | 0.0072863  | 0.0072863  | 0.0072863  |   0.0 |  0.03
Neigh   | 0.54466    | 0.54466    | 0.54466    |   0.0 |  2.04
Comm    | 0.77984    | 0.77984    | 0.77984    |   0.0 |  2.92
Output  | 0.018804   | 0.018804   | 0.018804   |   0.0 |  0.07
Modify  | 2.7465     | 2.7465     | 2.7465     |   0.0 | 10.28
Other   |            | 1.004      |            |       |  3.76

Nlocal:    500 ave 500 max 500 min
Histogram: 1 0 0 0 0 0 0 0 0 0
Nghost:    1568 ave 1568 max 1568 min
Histogram: 1 0 0 0 0 0 0 0 0 0
Neighs:    14520 ave 14520 max 14520 min
Histogram: 1 0 0 0 0 0 0 0 0 0

Total # of neighbors = 14520
Ave neighs/atom = 29.04
Ave special neighs/atom = 0
Neighbor list builds = 657
Dangerous builds = 0

write_data      ${walker}/final_restart_file
write_data      15/final_restart_file

quit
