LAMMPS (19 May 2017)
Processor partition = 6
  using 1 OpenMP thread(s) per MPI task
# gREM variables
variable        lambda world 1000 1005 1010 1015 1020 1025 1030 1035 1040 1045 1050 1055 1060 1065 1070 1075
variable        walker world 0 1 2 3 4 5 6 7 8 9 10 11 12 13 14 15
variable        replica world 1 0 3 9 12 2 5 13 10 4 7 14 6 15 8 11

variable        T0 equal 300.0
variable        press equal 0.0

units           real
atom_style      full
pair_style      lj/cut 5.0

# LJ particles
read_data       ${walker}/restart_file
read_data       6/restart_file
  orthogonal box = (1.0261 1.0261 1.0261) to (23.9739 23.9739 23.9739)
  1 by 1 by 1 MPI processor grid
  reading atoms ...
  500 atoms
  reading velocities ...
  500 velocities
  0 = max # of 1-2 neighbors
  0 = max # of 1-3 neighbors
  0 = max # of 1-4 neighbors
  1 = max # of special neighbors

#dump            dump all xyz 1000 ${walker}/dump.xyz

fix             fxnpt all npt temp ${T0} ${T0} 1000.0 iso ${press} ${press} 10000.0
fix             fxnpt all npt temp 300 ${T0} 1000.0 iso ${press} ${press} 10000.0
fix             fxnpt all npt temp 300 300 1000.0 iso ${press} ${press} 10000.0
fix             fxnpt all npt temp 300 300 1000.0 iso 0 ${press} 10000.0
fix             fxnpt all npt temp 300 300 1000.0 iso 0 0 10000.0
fix             fxgREM all grem ${lambda} -.03 -30000 fxnpt
fix             fxgREM all grem 1030 -.03 -30000 fxnpt
thermo_modify   press fxgREM_press

thermo          50
thermo_style    custom step temp f_fxgREM pe etotal press vol
WARNING: New thermo_style command, previous thermo_modify settings will be lost (../output.cpp:705)
timestep        1.0

temper/grem     100000 1000 ${lambda} fxgREM fxnpt 10294 98392 ${walker}
temper/grem     100000 1000 1030 fxgREM fxnpt 10294 98392 ${walker}
temper/grem     100000 1000 1030 fxgREM fxnpt 10294 98392 6
Neighbor list info ...
  update every 1 steps, delay 10 steps, check yes
  max neighbors/atom: 2000, page size: 100000
  master list distance cutoff = 7
  ghost atom cutoff = 7
  binsize = 3.5, bins = 7 7 7
  1 neighbor lists, perpetual/occasional/extra = 1 0 0
  (1) pair lj/cut, perpetual
      attributes: half, newton on
      pair build: half/bin/newton
      stencil: half/bin/3d/newton
      bin: standard
Per MPI rank memory allocation (min/avg/max) = 5.722 | 5.722 | 5.722 Mbytes
Step Temp f_fxgREM PotEng TotEng Press Volume 
       0    299.93885    224.46338   -3148.7792   -2702.6429     90.56283    12084.335 
      50    292.34489    224.27674    -3142.558   -2707.7172    207.74782    12084.266 
     100    302.88757    224.62765    -3154.255   -2703.7327   -203.54606    12084.049 
     150    296.29511    224.42218   -3147.4062   -2706.6896   -9.1770833     12083.53 
     200    304.74948    224.67993   -3155.9976   -2702.7058   -118.27855    12082.738 
     250    295.81059    224.38471    -3146.157   -2706.1611    196.49012    12081.684 
     300    288.84152    224.12709   -3137.5696   -2707.9397    395.20102    12080.505 
     350    297.19034    224.31966   -3143.9887   -2701.9406    251.87203    12079.297 
     400    288.83136    224.08814   -3136.2712   -2706.6565    505.24002    12078.036 
     450    300.18477    224.46955    -3148.985   -2702.4829    228.33138    12076.777 
     500    297.26697    224.34252   -3144.7508   -2702.5887    348.25894    12075.454 
     550    305.13959    224.53194   -3151.0646   -2697.1926    127.22486    12074.074 
     600    297.90345    224.34362   -3144.7872   -2701.6784    252.34345    12072.553 
     650    294.14484    224.25546   -3141.8486   -2704.3304    427.14688    12070.929 
     700    290.79549    224.13618   -3137.8727   -2705.3364    648.26542    12069.324 
     750    285.40014    224.01778   -3133.9259   -2709.4148    742.56745    12067.848 
     800    302.65627    224.57374   -3152.4581   -2702.2798    169.35873    12066.496 
     850    297.65104    224.39401    -3146.467   -2703.7337    333.39038    12065.058 
     900    300.35903    224.42755    -3147.585   -2700.8237    353.08184    12063.554 
     950    302.62982    224.47738   -3149.2459    -2699.107     311.3796    12062.011 
    1000    298.00178    224.30825   -3143.6084   -2700.3534    423.57383    12060.424 
    1050    290.54655    224.16204   -3138.7346   -2706.5687    771.01688    12058.834 
    1100    282.17493    223.86107   -3128.7025   -2708.9886    1192.2282    12057.456 
    1150    301.95223    224.45875   -3148.6248   -2699.4938    600.54334    12056.441 
    1200    319.41488    224.99829   -3166.6097   -2691.5043    1.1344073    12055.503 
    1250    307.41099    224.57702   -3152.5673   -2695.3168    280.56477    12054.392 
    1300    311.67458    224.66861   -3155.6203    -2692.028    223.01116    12053.165 
    1350    303.31016    224.38564   -3146.1881   -2695.0372     510.1924    12051.848 
    1400    301.47504    224.29246   -3143.0818   -2694.6606    703.85703    12050.548 
    1450    295.31284    223.98675   -3132.8918   -2693.6363    1022.8449    12049.396 
    1500    298.83766    224.09198   -3136.3994    -2691.901    957.51285    12048.559 
    1550    297.01195     224.0832   -3136.1066   -2694.3238    945.88774    12048.012 
    1600    312.50443    224.53892   -3151.2972   -2686.4705    517.30495    12047.711 
    1650    309.54105    224.36459   -3145.4863   -2685.0675    721.29914    12047.493 
    1700    293.97492    223.84968   -3128.3228   -2691.0574    1233.0467    12047.438 
    1750     309.2423    224.29287   -3143.0957   -2683.1212    868.48793    12047.757 
    1800    320.44878    224.62989   -3154.3297   -2677.6865    588.88822    12048.331 
    1850    323.41069    224.66719    -3155.573   -2674.5241    490.42787    12048.982 
    1900    305.84693    224.02263   -3134.0878   -2679.1636    1079.8296    12049.684 
    1950      289.937    223.50736   -3116.9121   -2685.6528    1504.6195     12050.74 
    2000    309.27763    224.21732   -3140.5773   -2680.5503    813.80582    12052.295 
    2050    307.27836     229.0229   -3134.0965   -2677.0432     855.9837    12054.117 
    2100    307.78007    228.96047   -3132.0155    -2674.216    928.55454    12056.186 
    2150    302.26977    228.68152   -3122.7175   -2673.1141    1217.2783     12058.54 
    2200     310.8547    228.97337   -3132.4456   -2670.0728    971.65992    12061.301 
    2250    311.02545    228.89846   -3129.9488    -2667.322    964.47858    12064.407 
    2300    309.82023    228.94717   -3131.5722   -2670.7381    914.49523    12067.783 
    2350    309.09573    228.75004   -3125.0013   -2665.2448    911.17387    12071.427 
    2400    314.21398    228.88607   -3129.5357   -2662.1662    753.91679    12075.326 
    2450    320.77465    229.04551   -3134.8504   -2657.7224    655.31046    12079.414 
    2500    320.90006    229.02705    -3134.235   -2656.9205    717.53331    12083.629 
    2550    319.22937     228.9173   -3130.5766   -2655.7471    753.43211    12088.008 
    2600    313.31364    228.73241   -3124.4136   -2658.3833     833.2235    12092.587 
    2650    313.12505    228.67144   -3122.3812   -2656.6314    813.34676    12097.392 
    2700    322.88385    228.98947   -3132.9824   -2652.7172    458.56142    12102.424 
    2750    320.98096    228.94069   -3131.3564   -2653.9216    549.74384     12107.51 
    2800    299.58076    228.23454   -3107.8181   -2662.2144    1315.6676    12112.706 
    2850    296.90059    228.07691   -3102.5637   -2660.9465    1384.3881    12118.373 
    2900    307.01298    228.38737   -3112.9123   -2656.2538    980.43511     12124.56 
    2950    306.24739    228.34481   -3111.4938    -2655.974    980.83876    12131.087 
    3000    308.25197    228.38926   -3112.9752   -2654.4738    812.94566    12137.925 
    3050    323.17131    228.83757    -3127.919   -2647.2262    268.27222    12144.981 
    3100    323.06186    228.75648    -3125.216    -2644.686    221.61841    12151.993 
    3150    302.81305    228.05572   -3101.8575    -2651.446    810.66232     12158.93 
    3200    307.43197    228.14242   -3104.7474   -2647.4657    565.23731    12166.067 
    3250    311.08287    228.30594   -3110.1981   -2647.4859    299.37175    12173.314 
    3300    316.54728    228.48952   -3116.3173   -2645.4772    134.06063    12180.505 
    3350    313.45419    228.38437   -3112.8124    -2646.573    177.60912    12187.568 
    3400    301.08299    228.01854   -3100.6181     -2652.78    385.09105    12194.529 
    3450    304.43049    228.09983   -3103.3277   -2650.5104    176.81289    12201.468 
    3500    304.90357    228.08388   -3102.7958   -2649.2749     124.3935    12208.299 
    3550    305.23778    227.99689   -3099.8962   -2645.8781    76.538929    12214.994 
    3600    309.48435    228.22863   -3107.6209   -2647.2863    -171.8285    12221.494 
    3650     294.8048    227.80843   -3093.6142   -2655.1144    234.92836    12227.716 
    3700    292.59616    227.72078   -3090.6927   -2655.4781    289.98676    12233.856 
    3750    311.67521    228.24277   -3108.0922    -2644.499   -366.58096    12239.904 
    3800    311.86499    228.23592   -3107.8641   -2643.9886    -417.4572    12245.551 
    3850    291.74388     227.5628   -3085.4266   -2651.4797    99.669753    12250.796 
    3900     306.5617    228.05404   -3101.8012   -2645.8139   -409.85793    12255.818 
    3950     304.7527    227.91977   -3097.3255    -2644.029   -345.20296     12260.43 
    4000    289.92316    227.49223   -3083.0742   -2651.8355    56.913579    12264.671 
    4050    303.55115    227.93351   -3097.7836   -2646.2743   -416.03816    12268.682 
    4100    300.26721    227.86968   -3095.6561   -2649.0314   -476.24532    12272.267 
    4150     309.5082    228.18523   -3106.1743   -2645.8043   -740.10244    12275.337 
    4200    297.62467    227.80668   -3093.5561    -2650.862   -412.23509    12277.817 
    4250    296.51692    227.84618   -3094.8727   -2653.8263     -478.235    12279.827 
    4300    293.67327    227.85522   -3095.1739   -2658.3571   -508.55645    12281.372 
    4350    303.11483     228.0692   -3102.3067   -2651.4464   -742.64417    12282.407 
    4400    291.83799     227.6932   -3089.7735   -2655.6866   -440.38031    12282.843 
    4450    300.17314    227.98703   -3099.5677    -2653.083   -627.11094    12282.783 
    4500    294.19705    227.85667   -3095.2222   -2657.6264   -432.05413    12282.186 
    4550    307.15383    228.24026   -3108.0088   -2651.1408   -882.64227    12281.081 
    4600    305.67593    228.20145   -3106.7151   -2652.0453   -947.69905     12279.29 
    4650    298.43106    227.96215   -3098.7382   -2654.8446   -696.67566    12276.753 
    4700    288.54356    227.72831   -3090.9437    -2661.757   -415.95687    12273.629 
    4750    294.92462    227.94468   -3098.1559   -2659.4779    -514.9707    12270.035 
    4800    290.25281     227.8969   -3096.5634   -2664.8344    -306.5963    12265.965 
    4850    298.46951    228.15719   -3105.2398    -2661.289   -497.09392    12261.495 
    4900      312.652    228.65567   -3121.8558   -2656.8096   -900.75247    12256.517 
    4950    294.38646    228.15778   -3105.2594   -2667.3819   -341.50906     12250.88 
    5000    293.70495    228.13711   -3104.5703   -2667.7065   -270.60348    12244.804 
    5050    294.77403    228.19696   -3106.5653   -2668.1113   -340.83605    12238.364 
    5100    294.95545    228.19945   -3106.6484   -2667.9245    -318.2439    12231.517 
    5150    290.06349    228.15938   -3105.3127   -2673.8652   -173.97124    12224.285 
    5200    289.78631    228.22727   -3107.5758   -2676.5406   -225.20818    12216.734 
    5250    297.86051    228.47241   -3115.7469   -2672.7019   -472.24169    12208.841 
    5300    307.19548    228.79466   -3126.4887   -2669.5587   -680.36389    12200.481 
    5350    306.03735      228.842   -3128.0668   -2672.8595   -630.73919    12191.539 
    5400    290.03732    228.39512   -3113.1707   -2681.7622   -105.68855    12182.061 
    5450    286.62716    228.36799   -3112.2664   -2685.9303    112.15774    12172.297 
    5500    295.34685    228.74723   -3124.9076   -2685.6015   -148.71888     12162.38 
    5550    303.75663    229.01654   -3133.8847   -2682.0698    -321.9545    12152.179 
    5600    291.84308     228.6672     -3122.24   -2688.1456    134.84795    12141.637 
    5650    308.57477    229.32106   -3144.0352   -2685.0536   -285.50871    12130.899 
    5700    289.85892    228.73169   -3124.3896   -2693.2464    358.24454    12119.866 
    5750    295.75964    228.99619   -3133.2064   -2693.2864    312.35855    12108.776 
    5800    290.59824    228.91894   -3130.6315   -2698.3886    609.31846    12097.685 
    5850    288.51242    228.83173   -3127.7244   -2698.5841    793.27747    12086.715 
    5900    291.82632    228.93411   -3131.1371   -2697.0676    763.28635     12075.98 
    5950    302.00456    229.37703    -3145.901   -2696.6921    499.40528    12065.452 
    6000    305.91333    229.51404    -3150.468   -2695.4451    474.47302        12055 
    6050    299.15117    229.26568   -3142.1893   -2697.2246    862.30357     12044.63 
    6100    293.93959    229.17071   -3139.0238   -2701.8109    1144.0463    12034.532 
    6150    308.86951    229.73127   -3157.7088   -2698.2888    788.60274     12024.81 
    6200    301.72976    229.42988   -3147.6628   -2698.8626    1061.2414    12015.352 
    6250    305.93798     229.6183   -3153.9433   -2698.8837    955.99754    12006.221 
    6300    304.33804    229.65288   -3155.0958   -2702.4161    936.99841    11997.413 
    6350    301.96662    229.61775   -3153.9251   -2704.7727    1007.5358    11988.914 
    6400     309.3221    229.82465   -3160.8218   -2700.7286    854.56978    11980.745 
    6450    307.41642    229.93083    -3164.361   -2707.1024      926.868    11972.826 
    6500    290.29511    229.46368   -3148.7895   -2716.9975    1577.7428    11965.221 
    6550     299.8566    229.73589    -3157.863   -2711.8491    1337.7375     11958.21 
    6600    299.19879    229.69954   -3156.6514   -2711.6159    1341.4964    11951.736 
    6650     298.0548    229.71335   -3157.1118   -2713.7779    1476.2804    11945.767 
    6700    295.77229    229.74645   -3158.2149    -2718.276    1553.2247    11940.371 
    6750    310.88483    230.20127   -3173.3757    -2710.958    1073.7862    11935.564 
    6800    308.60182    230.16258   -3172.0861   -2713.0643    1161.3305    11931.152 
    6850    297.55472    229.67806   -3155.9354   -2713.3453    1671.0234    11927.154 
    6900    291.65558    229.50174   -3150.0581   -2716.2425    1977.3457    11923.824 
    6950    293.21838    229.58676   -3152.8919   -2716.7518    1925.5742    11921.317 
    7000    295.04817    229.68812   -3156.2706   -2717.4088    1756.2836    11919.605 
    7050    301.44166    224.83372   -3161.1238   -2712.7522    1582.4074     11918.59 
    7100    292.91301    224.64594   -3154.8648   -2719.1789    1780.2222    11918.206 
    7150    300.19274    224.91128   -3163.7094   -2717.1955       1568.4    11918.497 
    7200    297.26759    224.79182   -3159.7272   -2717.5642    1684.8714    11919.417 
    7250    304.26247    225.11087   -3170.3623    -2717.795    1365.8402    11920.968 
    7300    309.03618    225.27767   -3175.9225   -2716.2546    1097.6634    11923.003 
    7350    303.58254    225.19783   -3173.2609   -2721.7049    1167.3714    11925.395 
    7400    296.60043    225.04725   -3168.2418   -2727.0711    1377.2375    11928.173 
    7450    290.14781    224.82681   -3160.8936   -2729.3207    1590.8899    11931.462 
    7500    303.83156    225.26376   -3175.4585   -2723.5321     1147.253    11935.319 
    7550    304.09088    225.28709   -3176.2362   -2723.9241    1102.2372    11939.574 
    7600    300.54239    225.03739    -3167.913   -2720.8789    1233.8007    11944.187 
    7650    296.56805    224.98258    -3166.086   -2724.9635    1292.4107    11949.208 
    7700    283.89581    224.61262   -3153.7541   -2731.4806    1577.8263    11954.706 
    7750    283.67171    224.57369   -3152.4565   -2730.5163    1452.7679    11960.785 
    7800    292.41525    224.87913   -3162.6377   -2727.6922    1073.2488    11967.382 
    7850    292.47025    224.93948   -3164.6492   -2729.6219    902.86398     11974.34 
    7900    292.80717    225.07862   -3169.2874    -2733.759    743.47749    11981.529 
    7950    288.39155    224.91161   -3163.7205   -2734.7599    749.39257    11988.898 
    8000    303.55006     225.3186   -3177.2867    -2725.779     240.0478    11996.412 
    8050    289.36812    224.88109    -3162.703   -2732.2899      602.983    12003.862 
    8100    276.04434     224.3582   -3145.2735   -2734.6784    905.24928    12011.406 
    8150    300.32769    225.14351   -3171.4505   -2724.7358    47.658747    12019.138 
    8200    294.85845     225.0663   -3168.8765    -2730.297    72.293486    12026.713 
    8250    291.47807    224.96438   -3165.4792   -2731.9277    125.47144     12034.09 
    8300    288.12641    224.78706   -3159.5688   -2731.0026    148.50421    12041.323 
    8350     300.6824    225.25805   -3175.2685   -2728.0262   -371.27794    12048.371 
    8400    285.81666    224.77121   -3159.0402   -2733.9096    2.2214368    12055.047 
    8450    275.18397     224.3429   -3144.7633    -2735.448    258.37308    12061.499 
    8500    288.14194    224.78917   -3159.6389   -2731.0496   -214.30743    12067.822 
    8550    280.26906    224.51308    -3150.436    -2733.557   -17.125397    12073.853 
    8600     287.3044    224.64913   -3154.9709   -2727.6274   -226.93089    12079.623 
    8650    285.76119    224.54257    -3151.419   -2726.3709   -244.21849    12085.059 
    8700    287.37354    224.56982   -3152.3272   -2724.8809   -352.83487     12090.14 
    8750    284.48896    224.43941   -3147.9805   -2724.8247   -309.55853    12094.819 
    8800    288.64473    224.64675   -3154.8918   -2725.5546   -481.33716    12099.105 
    8850     294.9012    224.81272   -3160.4239   -2721.7807   -610.09439    12102.917 
    8900    285.88154    224.45288   -3148.4293   -2723.2022   -253.91472    12106.198 
    8950    285.22631    224.41193   -3147.0644   -2722.8118   -178.94954    12109.101 
    9000    290.37922     224.5701   -3152.3365   -2720.4194   -275.53915    12111.674 
    9050    282.76419     224.2251   -3140.8366   -2720.2463     47.44403    12113.903 
    9100    283.92515    224.24544   -3141.5148   -2719.1977    32.506188    12115.922 
    9150    294.55846    224.48178   -3149.3926   -2711.2592   -257.00851    12117.724 
    9200    287.31856     224.1467   -3138.2233   -2710.8587   -24.152575    12119.202 
    9250    281.67552    223.93982   -3131.3274   -2712.3564    129.50722    12120.438 
    9300    293.37669     224.2696     -3142.32   -2705.9445    -163.8775    12121.484 
    9350     300.0575    224.40763   -3146.9211   -2700.6083   -239.45885    12122.227 
    9400     289.2828    224.00864   -3133.6214   -2703.3351    183.06735    12122.645 
    9450    292.54638    223.94417   -3131.4724   -2696.3319    205.93778    12122.921 
    9500    296.55669     224.0456   -3134.8535   -2693.7479    87.323426     12123.09 
    9550    306.32229    224.30102   -3143.3673   -2687.7361   -117.12801    12123.066 
    9600    304.01803    224.17378   -3139.1259   -2686.9221    34.477066     12122.75 
    9650    298.33248     223.8577   -3128.5898   -2684.8429     247.6053    12122.228 
    9700    298.42583    223.86373    -3128.791   -2684.9052    246.94868    12121.604 
    9750    300.02995    223.80828   -3126.9427   -2680.6709    292.30287    12120.898 
    9800    315.26445      224.267   -3142.2334   -2673.3014   -76.660013    12120.102 
    9850    316.12182    224.28454    -3142.818   -2672.6108    4.7491646    12119.042 
    9900    309.40294    224.00899   -3133.6329   -2673.4195    282.09845    12117.758 
    9950    303.65784    223.81798   -3127.2659   -2675.5979    404.80162    12116.385 
   10000    309.33999    224.07777   -3135.9258    -2675.806    225.43033    12114.973 
   10050    303.65255    223.64974    -3121.658   -2669.9979    478.31499    12113.487 
   10100     306.8947    223.92322   -3130.7741   -2674.2915    349.92252    12112.004 
   10150     315.4965    224.23565   -3141.1883   -2671.9112    114.37511    12110.477 
   10200    314.76651    224.19667   -3139.8889   -2671.6976    135.58556    12108.782 
   10250    301.52709    223.74349   -3124.7831   -2676.2844    575.89825    12106.949 
   10300     302.9406    223.80262    -3126.754   -2676.1529    653.67432    12105.182 
   10350     296.2358    223.54458   -3118.1526   -2677.5243    845.74725    12103.555 
   10400    303.27629    223.75561   -3125.1871   -2674.0866    676.22805    12102.124 
   10450    303.09846    223.71492   -3123.8306   -2672.9946    747.45659    12100.868 
   10500    310.78985    224.02791   -3134.2635   -2671.9872    468.61958    12099.761 
   10550    316.49338    224.20574   -3140.1913   -2669.4314    250.92088     12098.67 
   10600    313.14614    224.07674   -3135.8914   -2670.1103    310.45972    12097.496 
   10650    317.01428    224.19842   -3139.9474   -2668.4127    209.29764    12096.244 
   10700    310.42693    224.05332   -3135.1107   -2673.3742    407.50905    12094.886 
   10750    306.44602    223.97319   -3132.4396   -2676.6243    545.25104    12093.495 
   10800     306.1005    223.94423   -3131.4743    -2676.173    579.71469    12092.163 
   10850    310.34096    224.10509   -3136.8365   -2675.2278    516.97471    12090.896 
   10900    308.09252     223.9919   -3133.0635   -2674.7992    697.65765    12089.695 
   10950    305.28354    223.88521   -3129.5071    -2675.421    762.90829    12088.633 
   11000    312.63191    224.09402   -3136.4672   -2671.4509    423.24874    12087.743 
   11050    323.62742    219.50725   -3150.2418   -2668.8705   -33.062665    12086.827 
   11100    318.37185     219.4021   -3146.7367   -2673.1827    198.59151    12085.657 
   11150    301.71089     218.8479   -3128.2634   -2679.4913    795.82159    12084.387 
   11200    303.83564    218.97384   -3132.4615    -2680.529    745.04705    12083.258 
   11250    307.30518    219.07304   -3135.7681   -2678.6749    579.61338    12082.289 
   11300     301.9831    219.04927   -3134.9758   -2685.7988    640.20936    12081.398 
   11350    301.30149    219.00669   -3133.5562    -2685.393    694.10447      12080.6 
   11400    314.01629    219.46619    -3148.873   -2681.7975    304.11377    12079.903 
   11450    305.33287    219.16259   -3138.7531   -2684.5936    468.39228    12079.152 
   11500    304.30803    219.15311    -3138.437   -2685.8018    473.54816    12078.391 
   11550    304.17643    219.19694   -3139.8981   -2687.4587    367.93789    12077.634 
   11600    325.50099    219.94032   -3164.6772   -2680.5191   -300.76988    12076.786 
   11650    302.82257    219.17498    -3139.166   -2688.7404    414.00076    12075.622 
   11700    309.26453    219.46635   -3148.8785   -2688.8709    291.42564     12074.37 
   11750    301.48019    219.22428   -3140.8092   -2692.3803    491.13211    12073.049 
   11800    294.72096    219.04923   -3134.9742   -2696.5992    679.19406    12071.748 
   11850    300.73614    219.28635   -3142.8784   -2695.5562    472.24458    12070.547 
   11900    298.50675    219.28567   -3142.8556   -2698.8494    454.97023    12069.366 
   11950    307.19349    219.62923   -3154.3076   -2697.3806    226.81462    12068.177 
   12000    296.17983    219.32173   -3144.0578   -2703.5128    585.50034    12066.906 
   12050     303.8627    224.55519   -3151.8395   -2699.8668    359.87035    12065.663 
   12100    303.91861    224.60854   -3153.6179    -2701.562     313.8936    12064.415 
   12150    299.63572    224.51347   -3150.4489   -2704.7635    416.15197    12063.116 
   12200    293.23538     224.4437   -3148.1235   -2711.9581    508.04395     12061.82 
   12250    290.70839    224.37091   -3145.6971   -2713.2904    480.96151     12060.59 
   12300    299.57265    224.63756   -3154.5853   -2708.9937    248.20194    12059.378 
   12350    301.44716    224.72193   -3157.3977   -2709.0179    263.99163    12058.082 
   12400    295.71999    224.44463   -3148.1544   -2708.2933    479.04884    12056.716 
   12450    294.68019    224.45277   -3148.4255   -2710.1111    463.06274    12055.367 
   12500    293.58564     224.4808   -3149.3599   -2712.6735    388.44223    12054.044 
   12550    298.63427    224.70118   -3156.7062   -2712.5103    117.27835    12052.695 
   12600    306.56461    225.00222   -3166.7408   -2710.7491   -167.11551    12051.189 
   12650    287.69772    224.37127   -3145.7092   -2717.7806    429.10011    12049.434 
   12700    296.85834    224.73365   -3157.7883    -2716.234    231.10616    12047.622 
   12750    274.67756    224.02429    -3134.143    -2725.581    912.43935    12045.771 
   12800    292.31725     224.6637   -3155.4566   -2720.6569    343.42482    12044.098 
   12850    298.94388    224.86048    -3162.016   -2717.3596    108.17286    12042.423 
   12900    285.06894    224.43041   -3147.6802   -2723.6618    612.69867    12040.614 
   12950    278.19195    224.23067   -3141.0222   -2727.2328    838.61209    12038.912 
   13000     297.0209    224.85928   -3161.9761     -2720.18    205.35194    12037.401 
   13050    306.64644    220.11866   -3170.6221   -2714.5087   -83.454754    12035.785 
   13100    307.91304    220.18485   -3172.8283    -2714.831   -84.255165    12033.888 
   13150    303.98723    220.18437   -3172.8124   -2720.6544    13.372232    12031.713 
   13200    300.20988    220.09494   -3169.8314   -2723.2919    161.03168    12029.306 
   13250    281.88015    219.46541    -3148.847   -2729.5716    743.08485    12026.775 
   13300    291.63952    219.79509   -3159.8363   -2726.0446    543.31144    12024.361 
   13350    285.66636    219.58091   -3152.6971     -2727.79    744.58594    12022.055 
   13400    306.93292    220.25672    -3175.224   -2718.6846    99.428507    12019.862 
   13450    295.50974    219.92291   -3164.0969   -2724.5485    339.68047    12017.535 
   13500    294.44908    219.88786   -3162.9287    -2724.958    455.24744    12015.149 
   13550    303.02955    220.07307   -3169.1023   -2718.3688    344.85084    12012.766 
   13600     295.9196    219.81999   -3160.6663   -2720.5083    612.21278    12010.344 
   13650    284.58285    219.44402   -3148.1339   -2724.8385    968.35655    12008.013 
   13700    276.27782    219.22805    -3140.935   -2729.9926    1185.2497    12005.957 
   13750     305.7775    220.14971   -3171.6569    -2716.836    286.14185    12004.229 
   13800    294.86769    219.70701   -3156.9002   -2718.3069    595.24769    12002.497 
   13850    309.83962    220.25696    -3175.232    -2714.369    145.48809    12000.782 
   13900    296.94733    219.90801   -3163.6004   -2721.9138     550.8779    11998.944 
   13950     278.2067    219.30472   -3143.4908   -2729.6794    1205.8966    11997.185 
   14000    293.51085    219.77862   -3159.2874   -2722.7123    777.49605    11995.798 
   14050    297.60549    219.92829   -3164.2765   -2721.6109    679.42089    11994.611 
   14100    297.50045     219.8806   -3162.6867   -2720.1773    770.00802    11993.566 
   14150    311.31669    220.36289   -3178.7631   -2715.7031    363.65682    11992.663 
   14200    305.12092    220.11584   -3170.5281   -2716.6839    538.43068    11991.743 
   14250    297.33788    219.94765   -3164.9218   -2722.6543    766.53602    11990.859 
   14300    289.71096    219.69316   -3156.4386   -2725.5155    1050.5685    11990.147 
   14350    293.47434    219.75786   -3158.5955   -2722.0746    929.07131    11989.722 
   14400    292.68136    219.73079   -3157.6932   -2722.3518    878.52564     11989.57 
   14450    297.59074    219.79314   -3159.7715   -2717.1278     815.2551    11989.647 
   14500    299.94879    219.93996   -3164.6653   -2718.5142     845.8334     11989.91 
   14550    299.76521    219.85994   -3161.9979   -2716.1198    921.25319    11990.397 
   14600    304.83006    219.93753   -3164.5844   -2711.1728    782.92303    11991.116 
   14650    293.66553    219.48374    -3149.458   -2712.6528     1135.182    11992.025 
   14700    295.70074    219.56152   -3152.0508   -2712.2183    1019.3787    11993.261 
   14750    303.46444     219.8154   -3160.5135   -2709.1331     740.6935    11994.797 
   14800    304.73911    219.98411    -3166.137   -2712.8607    675.91439    11996.494 
   14850    306.19741    219.99555   -3166.5182   -2711.0728    726.99942    11998.288 
   14900    291.00604    219.47383   -3149.1277   -2716.2783    1189.1756    12000.253 
   14950    303.48605     219.8371   -3161.2367   -2709.8242    860.94694    12002.561 
   15000    307.36992     219.8683   -3162.2768   -2705.0873    749.32097    12005.095 
   15050    310.14529    214.91198   -3163.7328   -2702.4152    673.44371    12007.791 
   15100    307.72421    214.71247   -3157.0824    -2699.366    683.05011    12010.595 
   15150    312.08514    214.77696   -3159.2319   -2695.0289    444.33849    12013.487 
   15200    314.08699    214.97291   -3165.7636    -2698.583    338.44677    12016.362 
   15250    303.06872    214.65634   -3155.2113   -2704.4195    738.94933    12019.167 
   15300    302.71656    214.51556   -3150.5187   -2700.2508    882.67605    12022.099 
   15350    298.05389    214.37464   -3145.8212   -2702.4886    1075.3142    12025.259 
   15400    294.69962    214.19269   -3139.7563   -2701.4129    1226.1077    12028.741 
   15450    310.89919    214.69494   -3156.4981   -2694.0591    708.57721    12032.582 
   15500    320.60449    214.82715   -3160.9051   -2684.0303    495.36897    12036.559 
   15550     321.0315     214.7559   -3158.5301   -2681.0201    521.77382    12040.542 
   15600    316.67079      214.512   -3150.3999   -2679.3761    652.04985    12044.531 
   15650    308.73591    214.24184   -3141.3945   -2682.1733    971.72991     12048.61 
   15700    310.56244    214.23786   -3141.2619   -2679.3238    979.12493    12052.918 
   15750    315.96686    214.44111    -3148.037   -2678.0602    771.29019    12057.473 
   15800    315.52518    214.36095    -3145.365   -2676.0452    798.00808     12062.19 
   15850      321.684    214.59737   -3153.2458   -2674.7652     617.4628    12067.049 
   15900     313.8388     214.2678   -3142.2601   -2675.4487    760.12056    12071.999 
   15950    314.09954    214.25582   -3141.8607   -2674.6614    711.07815    12077.066 
   16000    298.40324    213.76226   -3125.4086   -2681.5564    1103.7302    12082.289 
   16050    306.82881    213.95836   -3131.9452   -2675.5606    791.33382    12087.787 
   16100    318.27199     214.3536   -3145.1199   -2671.7144    364.56667    12093.446 
   16150    318.65413    214.39004   -3146.3348   -2672.3609    183.21883    12099.049 
   16200    299.98513    213.76834   -3125.6114   -2679.4063    661.14375    12104.512 
   16250    305.98221    213.91374   -3130.4579   -2675.3325    506.33041    12110.039 
   16300    318.47481    214.30508   -3143.5025   -2669.7954    29.088031    12115.563 
   16350    326.84018     214.4806   -3149.3532   -2663.2032   -316.31322    12120.834 
   16400     323.4488    214.35202   -3145.0675   -2663.9619   -287.86957    12125.684 
   16450    319.77056    214.22704   -3140.9013   -2665.2668   -198.77101    12130.087 
   16500    317.27258    214.26963   -3142.3208   -2670.4019   -197.66623    12134.095 
   16550    295.96075     213.6136   -3120.4533   -2680.2342    280.73845    12137.767 
   16600    318.66635    214.32763   -3144.2545   -2670.2624    -327.3497    12141.236 
   16650    318.21996    214.26768   -3142.2559   -2668.9278   -293.55045    12144.309 
   16700    316.73679    214.19833   -3139.9442   -2668.8223   -209.51479    12146.933 
   16750    306.33174    213.90265   -3130.0884   -2674.4431    92.641071    12149.208 
   16800    301.35108    213.74962   -3124.9873   -2676.7504    226.78791    12151.265 
   16850    293.56223    213.52389    -3117.463   -2680.8115     385.7189    12153.165 
   16900    303.72156    213.82901   -3127.6337   -2675.8709    52.604578    12154.983 
   16950     312.3919    214.15564   -3138.5214   -2673.8621   -322.01379    12156.561 
   17000    312.97228    214.24367   -3141.4555    -2675.933   -424.98644    12157.703 
   17050    302.26279    214.04134   -3134.7113   -2685.1183   -273.93389    12158.358 
   17100    300.39855    213.91244   -3130.4145   -2683.5945   -206.83784    12158.607 
   17150    305.08122    214.06826   -3135.6085   -2681.8233   -289.49626    12158.478 
   17200    298.06386    213.79441   -3126.4805    -2683.133   -96.897324    12157.944 
   17250    286.89626    213.58173   -3119.3909   -2692.6545    211.19418    12157.107 
   17300    294.72447    213.81418   -3127.1393    -2688.759    3.8972605    12156.111 
   17350    302.27471    214.05576   -3135.1919   -2685.5812   -221.71496    12154.844 
   17400     306.4563    214.19587   -3139.8623   -2684.0318   -400.60242    12153.188 
   17450    322.50028    214.71192    -3157.064   -2677.3693   -907.91395    12151.022 
   17500    290.24529    213.72295   -3124.0983   -2692.3804   -43.352891    12148.187 
   17550     296.8085    214.01243   -3133.7475   -2692.2674   -178.01083    12145.001 
   17600    296.21317    214.03589   -3134.5296    -2693.935   -179.05758    12141.494 
   17650    293.68775    213.95956   -3131.9854   -2695.1471   -83.401546    12137.649 
   17700    301.97574    214.33912   -3144.6375   -2695.4715   -294.87571    12133.479 
   17750     311.8776    214.71492   -3157.1638   -2693.2695   -528.19655    12128.899 
   17800    298.54172     214.3558   -3145.1932    -2701.135   -128.50064    12123.819 
   17850    301.47354    214.44896   -3148.2987   -2699.8797   -134.23918    12118.381 
   17900    295.32724    214.37947   -3145.9822   -2706.7053    110.24631    12112.639 
   17950     290.0173    214.20504    -3140.168   -2708.7892    331.32146    12106.708 
   18000    301.05349    214.61055    -3153.685   -2705.8907   -27.925502    12100.683 
   18050    311.24746    220.02656   -3167.5519   -2704.5949   -389.85439    12094.396 
   18100    285.71212    219.21916   -3140.6385   -2715.6634     378.4953    12087.723 
   18150    282.55648    219.17963   -3139.3208   -2719.0395    482.41317    12080.988 
   18200    297.73331    219.72191   -3157.3971   -2714.5414   -9.0809838    12074.263 
   18250    297.64928    219.79058   -3159.6861   -2716.9553 -0.028860196    12067.335 
   18300    295.03028    219.67079   -3155.6931   -2716.8579    144.89052    12060.206 
   18350    308.11946    220.11263   -3170.4209   -2712.1165   -287.87216    12052.894 
   18400    306.98775    220.24091   -3174.6969   -2718.0759   -277.39845    12045.207 
   18450    289.75709    219.73617   -3157.8724   -2726.8807    325.53633    12037.181 
   18500    288.70006    219.72753   -3157.5844   -2728.1649    452.37853    12029.081 
   18550    295.85043    219.95637   -3165.2125   -2725.1574    324.31822    12020.995 
   18600    291.89587    219.95425   -3165.1415   -2730.9686    501.29855    12012.873 
   18650     289.4187    219.84956   -3161.6521   -2731.1637    663.81426    12004.793 
   18700    290.55058    220.02581   -3167.5269   -2735.3549    534.32011    11996.832 
   18750    290.40349    220.06625    -3168.875   -2736.9218    637.33526    11988.949 
   18800    289.25738     220.0663   -3168.8765   -2738.6281    818.94804    11981.201 
   18850    302.66824    220.44697   -3181.5657   -2731.3697    529.62105    11973.637 
   18900    303.53843     220.3847   -3179.4899   -2727.9995    567.49605    11966.151 
   18950    300.16561    220.28897    -3176.299   -2729.8254    742.08489    11958.741 
   19000     290.8328    220.01576   -3167.1919   -2734.6002    1129.6739    11951.498 
   19050    288.48912    220.00337    -3166.779   -2737.6733    1261.6278    11944.618 
   19100    299.80152    220.41305   -3180.4349   -2734.5029    954.66572    11938.166 
   19150    298.93928    220.35673   -3178.5575    -2733.908    1035.2287    11932.015 
   19200    290.97741    220.09001   -3169.6669     -2736.86    1402.8148    11926.199 
   19250    298.82644    220.36701   -3178.9003   -2734.4186    1253.6947    11920.873 
   19300    301.05925    220.41666   -3180.5555   -2732.7527    1261.2696    11915.995 
   19350    298.51823    220.30991   -3176.9971   -2732.9739    1382.9714    11911.544 
   19400    299.63371    220.41368    -3180.456   -2734.7736    1338.6852    11907.568 
   19450    302.22281    220.55783    -3185.261   -2735.7274    1214.0929    11904.065 
   19500     303.1029     220.5794     -3185.98   -2735.1374    1207.7872    11900.977 
   19550    293.90967    220.33799    -3177.933   -2740.7647     1577.424    11898.296 
   19600    290.16776     220.0608   -3168.6935   -2737.0909    1774.9104    11896.214 
   19650    299.97988    220.39307    -3179.769   -2733.5717    1444.5775    11894.785 
   19700    301.75343    220.44228   -3181.4092   -2732.5738      1399.73    11893.885 
   19750    302.54137     220.4438     -3181.46   -2731.4527    1347.8507    11893.481 
   19800     303.7494    220.49526   -3183.1753   -2731.3711    1271.4416     11893.53 
   19850    301.73394    220.46537   -3182.1791   -2733.3727    1314.2303    11894.016 
   19900    295.99316    220.31772   -3177.2572   -2736.9898    1553.3132    11894.957 
   19950    291.69515    220.11458   -3170.4861   -2736.6117    1754.3136    11896.479 
   20000    301.21589    220.50532   -3183.5108    -2735.475    1391.6065    11898.638 
   20050    295.09161    215.22629   -3174.2096   -2735.2832    1521.8711    11901.321 
   20100    309.90123     215.6809   -3189.3634   -2728.4088     1039.774    11904.513 
   20150    307.14507    215.64436   -3188.1455   -2731.2904    1044.7903    11908.007 
   20200    298.32841    215.46619   -3182.2062   -2738.4653    1286.9978    11911.803 
   20250    313.70373    215.89039   -3196.3465    -2729.736    840.84128    11915.982 
   20300    302.70871    215.50557   -3183.5189   -2733.2627    1022.6179    11920.378 
   20350    306.81834    215.67715   -3189.2384   -2732.8693    777.70637    11925.028 
   20400    302.67774    215.52143   -3184.0477   -2733.8375    886.16145    11929.841 
   20450    288.15494    215.05819   -3168.6064   -2739.9977    1206.3749     11934.87 
   20500    296.83442    215.39109   -3179.7028   -2738.1841    850.53243    11940.252 
   20550     302.7535    215.55224   -3185.0748   -2734.7519    718.21903    11945.828 
   20600    287.49032    215.07849   -3169.2831    -2741.663    1072.4741     11951.56 
   20650    313.62763    215.93003   -3197.6676   -2731.1703    232.33186    11957.516 
   20700    297.18486    215.35339   -3178.4463   -2736.4063    624.85071    11963.412 
   20750    284.46498    214.87825   -3162.6082   -2739.4881    913.08451    11969.363 
   20800    301.35466    215.40387   -3180.1291   -2731.8869    416.12331     11975.49 
   20850    298.38418    215.28887   -3176.2957   -2732.4719     463.6202    11981.623 
   20900     305.6421    215.52497   -3184.1658   -2729.5463    164.77027    11987.721 
   20950    282.30843     214.7822   -3159.4068   -2739.4944    711.63957    11993.694 
   21000    284.21273    214.79493   -3159.8308   -2737.0859    594.14004    11999.755 
   21050    293.63008    215.10703   -3170.2342   -2733.4817    233.47865    12005.876 
   21100    292.51003    215.07676   -3169.2253   -2734.1388    225.56472    12011.877 
   21150    303.53326    215.40209   -3180.0697    -2728.587   -165.55767    12017.722 
   21200    299.63705    215.25686   -3175.2288   -2729.5414   -103.84438    12023.239 
   21250    303.32459    215.42227   -3180.7425   -2729.5701    -255.1346    12028.429 
   21300    305.23945    215.49471   -3183.1571   -2729.1365   -303.05237    12033.231 
   21350    282.53037    214.71758   -3157.2527   -2737.0102    342.11752    12037.648 
   21400    291.82163    214.89903   -3163.3009   -2729.2384    21.427906    12041.959 
   21450    305.68272    215.37379   -3179.1263   -2724.4465   -380.10772    12046.022 
   21500    286.83782    214.76699   -3158.8996   -2732.2501    144.18211    12049.676 
   21550    292.47945    214.94182   -3164.7272   -2729.6862   -72.970821     12053.11 
   21600    290.68532    214.86092   -3162.0308   -2729.6584   -131.14771    12056.275 
   21650     306.0104    215.34092   -3178.0308   -2722.8635   -593.40949    12059.084 
   21700    292.55908    214.90345   -3163.4482   -2728.2887   -234.99047     12061.37 
   21750    284.18865    214.58859    -3152.953   -2730.2439    42.003936    12063.264 
   21800    292.94947    214.82164   -3160.7212    -2724.981   -206.80209    12064.903 
   21850    296.70544    214.91867   -3163.9555   -2722.6287   -234.57892    12066.183 
   21900    282.24784    214.51947   -3150.6491   -2730.8269    182.84976     12067.11 
   21950    291.34711    214.79769   -3159.9232   -2726.5664   -113.00941     12067.85 
   22000    291.52371    214.64059   -3154.6865   -2721.0671   -76.396256    12068.309 
   22050    301.53693    214.91234   -3163.7446   -2715.2312   -248.47448    12068.447 
   22100    300.72253    214.85928   -3161.9759    -2714.674   -183.52558    12068.224 
   22150    291.42536    214.54509   -3151.5031   -2718.0299    116.29733    12067.658 
   22200    281.58562    214.13821   -3137.9403    -2719.103    469.04842    12066.912 
   22250    308.63176    215.00471   -3166.8236   -2707.7572   -249.47128    12066.102 
   22300    288.84446    214.37429   -3145.8096   -2716.1754    337.05907    12064.983 
   22350     302.4687    214.71122   -3157.0406   -2707.1414    66.134408    12063.739 
   22400    316.08841    215.05707   -3168.5691   -2698.4116   -270.36535    12062.286 
   22450      312.358     214.9088   -3163.6266   -2699.0178   -59.024095    12060.449 
   22500    309.86894    214.86316   -3162.1052   -2701.1986    141.44062    12058.304 
   22550    310.33124    214.84752   -3161.5839   -2699.9897    267.49321    12055.985 
   22600    299.43497    214.45214   -3148.4048    -2703.018    681.12511    12053.569 
   22650    297.31646    214.20627   -3140.2089   -2697.9732    838.92589    12051.247 
   22700    313.95454    214.70881   -3156.9605   -2689.9769    424.70226     12049.09 
   22750    316.29671    214.70683   -3156.8942   -2686.4268     393.5322    12046.921 
   22800    306.51763    214.32673   -3144.2242   -2688.3024    678.22123    12044.715 
   22850    315.09281    214.63483   -3154.4945   -2685.8178    360.56414    12042.574 
   22900    321.63369    214.87356    -3162.452   -2684.0462    140.61873     12040.37 
   22950    319.70693    214.79209   -3159.7363   -2684.1965    309.97394    12037.979 
   23000     300.8794    214.25486   -3141.8288   -2694.2935    919.01413    12035.525 
   23050    321.02846    214.94762   -3164.9206   -2687.4151      365.328    12033.245 
   23100     317.1743     214.7435   -3158.1166   -2686.3439    562.82446    12030.945 
   23150    312.39385    214.55302   -3151.7672    -2687.105    763.06691    12028.673 
   23200    313.13218    214.56927    -3152.309   -2686.5486    757.61061    12026.523 
   23250      310.799    214.45455   -3148.4849    -2686.195    937.32313     12024.51 
   23300     310.7435    214.40244   -3146.7479   -2684.5405    1058.6839    12022.742 
   23350    311.92048    214.49393   -3149.7977   -2685.8396    964.31243    12021.275 
   23400    328.31427    214.99553   -3166.5176    -2678.175    489.18068    12020.026 
   23450    311.59487    214.55332   -3151.7773   -2688.3035    974.32533    12018.831 
   23500    312.54366    214.52783   -3150.9276   -2686.0426    1005.0525    12017.854 
   23550    303.93459    214.33268   -3144.4225   -2692.3428    1141.2467    12017.163 
   23600    310.39538    214.50852   -3150.2841   -2688.5945      945.983    12016.795 
   23650    307.62349    214.44608   -3148.2028   -2690.6362    966.29856    12016.682 
   23700    320.27787    214.64419   -3154.8064   -2678.4173    661.74916    12016.803 
   23750    310.14765    214.46522   -3148.8408   -2687.5197    922.72941    12017.032 
   23800    312.81674     214.6327   -3154.4233   -2689.1321    923.32299     12017.46 
   23850     318.2075    214.79408   -3159.8025    -2686.493    740.66627    12018.121 
   23900    312.57477    214.56652   -3152.2174   -2687.2862     826.2584    12018.919 
   23950    309.12651    214.42932    -3147.644   -2687.8418    942.13441    12019.889 
   24000    303.96771    214.34852   -3144.9507   -2692.8217    1071.2865    12021.106 
   24050     316.8122    209.72215   -3157.4051    -2686.171    725.85476     12022.59 
   24100    322.59532    209.95305   -3165.1017   -2685.2656     501.0974    12024.174 
   24150    319.04653    209.87213   -3162.4044   -2687.8469     581.0185    12025.738 
   24200    301.59747    209.42946   -3147.6487   -2699.0453    929.62935    12027.349 
   24250    319.37095    209.99046   -3166.3486   -2691.3085    389.16014    12029.121 
   24300     297.1667    209.26263   -3142.0876   -2700.0747    1026.9093    12030.892 
   24350    308.69798    209.66341    -3155.447   -2696.2821    585.58252    12032.866 
   24400    324.63041    210.12467   -3170.8224   -2687.9592    32.677661    12034.881 
   24450     322.3698    210.14699   -3171.5665   -2692.0658    78.491404    12036.645 
   24500    294.22945    209.30718   -3143.5728   -2705.9288    844.99179    12038.205 
   24550    303.61885     209.5481   -3151.6034   -2699.9934    578.84966    12039.883 
   24600    310.64583    209.77095   -3159.0317   -2696.9696    334.95674      12041.6 
   24650    305.17339    209.66685   -3155.5617   -2701.6394    439.67675    12043.225 
   24700    312.68228     210.0419   -3168.0634   -2702.9722    136.47802    12044.792 
   24750    303.11068    209.78926   -3159.6419   -2708.7877    355.68102    12046.191 
   24800    298.08931    209.64166   -3154.7221   -2711.3369    397.91025    12047.484 
   24850     312.4544    209.96759   -3165.5863   -2700.8341    -62.99249    12048.686 
   24900      304.049      209.745   -3158.1666   -2705.9167    153.17167    12049.614 
   24950    305.15597     209.8619   -3162.0634    -2708.167    168.81309    12050.322 
   25000    298.79009    209.67357   -3155.7858   -2711.3582    334.59081     12050.86 
   25050    291.78696    209.40776   -3146.9253   -2712.9144     458.0007    12051.315 
   25100    315.29498    210.18311   -3172.7704    -2703.793   -239.35723    12051.697 
   25150    306.62841    209.96341   -3165.4471   -2709.3606   -52.621532     12051.73 
   25200    318.52567    210.39053   -3179.6845   -2705.9017   -417.35885    12051.418 
   25250    307.68956    210.05315   -3168.4383   -2710.7734    -189.5539    12050.652 
   25300    301.07264    209.85128   -3161.7094   -2713.8867    118.11639    12049.499 
   25350    298.10494    209.76231   -3158.7438   -2715.3352    269.33099    12048.124 
   25400    302.08896    209.91248   -3163.7493   -2714.4149     64.50314    12046.603 
   25450    313.23308    210.30616   -3176.8718   -2710.9614   -379.73845    12044.845 
   25500    308.71242    210.16091   -3172.0305   -2712.8441   -249.09268    12042.625 
   25550    285.68939    209.49538   -3149.8459   -2724.9045    426.15103    12040.041 
   25600    300.26421    209.93771   -3164.5903   -2717.9701    125.99438    12037.369 
   25650    289.93544    209.59363    -3153.121    -2721.864     439.9112    12034.552 
   25700    299.25745    210.04648    -3168.216   -2723.0932    118.07475    12031.663 
   25750    300.02129    210.05043   -3168.3476   -2722.0887    58.949292    12028.592 
   25800    310.74164    210.25949   -3175.3165   -2713.1118   -95.457757    12025.281 
   25850    300.40387    210.08321   -3169.4403   -2722.6123    120.38414    12021.669 
   25900     297.3777    210.05551    -3168.517   -2726.1902    159.99416    12017.853 
   25950    306.28527     210.3099   -3176.9966   -2721.4204   -12.991678    12013.856 
   26000    303.43666    210.27618   -3175.8726   -2724.5336    168.25605    12009.596 
   26050    312.53362    205.41214   -3180.4047   -2715.5346    52.232803    12005.128 
   26100      316.546     205.6241   -3187.4701   -2716.6319    -25.23878    12000.407 
   26150    300.05303    205.14761   -3171.5869   -2725.2808    508.19349    11995.417 
   26200    298.41852    205.14288   -3171.4294   -2727.5545    574.63447    11990.398 
   26250    307.96392    205.52329   -3184.1096   -2726.0366    301.35258    11985.403 
   26300    310.02593    205.56212   -3185.4041   -2724.2641     314.3979    11980.302 
   26350    305.79806    205.38155    -3179.385   -2724.5335    470.06988    11975.096 
   26400    299.54068    205.26531   -3175.5104   -2729.9663    683.38213     11969.86 
   26450    295.68251    205.17392    -3172.464   -2732.6586     865.9969    11964.699 
   26500    312.85101    205.70487   -3190.1622     -2724.82    307.18204    11959.688 
   26550     326.4766    206.12167   -3204.0556   -2718.4464   -82.481525    11954.553 
   26600    302.48735     205.4393   -3181.3099   -2731.3829    483.78381    11949.147 
   26650     310.5728    205.71121   -3190.3737   -2728.4202     342.2325    11943.675 
   26700     296.7148    205.23734    -3174.578   -2733.2372    937.08373    11938.147 
   26750    308.89162    205.68405   -3189.4683   -2730.0155    745.59575    11932.787 
   26800    305.87202    205.54922   -3184.9741   -2730.0127    878.72635    11927.582 
   26850    320.19384    205.93164   -3197.7214   -2721.4573    567.84168      11922.5 
   26900    299.04834    205.44642   -3181.5472   -2736.7355    1174.0022    11917.488 
   26950    310.12716    205.91088   -3197.0293   -2735.7387    858.56687    11912.758 
   27000    316.98088    206.07943   -3202.6475   -2731.1625     639.1991    11908.204 
   27050    310.42957    205.94573   -3198.1911   -2736.4506    869.78939    11903.713 
   27100    300.11021    205.57423   -3185.8075   -2739.4163    1200.1376    11899.398 
   27150    312.41167    206.08426   -3202.8086     -2738.12    789.53729    11895.395 
   27200    314.00891    206.13108   -3204.3692   -2737.3047    754.61213    11891.555 
   27250    300.90932    205.72364   -3190.7879   -2743.2081    1121.6932    11887.854 
   27300    296.04099    205.60654   -3186.8847   -2746.5462    1306.3825    11884.448 
   27350    305.40844    205.95909   -3198.6363   -2744.3644    1063.1659    11881.428 
   27400    310.53786    206.19932   -3206.6441   -2744.7426    886.98156    11878.689 
   27450    307.83306    206.18848   -3206.2825   -2748.4042    1013.5029    11876.121 
   27500    293.85424    205.62474   -3187.4912   -2750.4053    1488.6762    11873.835 
   27550    312.31499    206.24764   -3208.2548     -2743.71    986.66333    11871.989 
   27600    302.53814    206.03771   -3201.2568   -2751.2543    1204.7879    11870.407 
   27650     293.0526    205.76012   -3192.0038   -2756.1103     1422.134     11869.16 
   27700     302.0477    206.11391   -3203.7969   -2754.5238    1111.9615    11868.341 
   27750    311.33364    206.32341   -3210.7803   -2747.6951    888.72023    11867.825 
   27800    297.70514    205.90064   -3196.6878    -2753.874    1229.9056     11867.53 
   27850    299.53833    206.01343   -3200.4476   -2754.9071     1055.928    11867.564 
   27900    302.08124    206.09178   -3203.0594   -2753.7364    1027.5367     11867.87 
   27950    294.82151    205.93556   -3197.8521   -2759.3275    1139.1147    11868.438 
   28000    311.90403    206.55245   -3218.4149   -2754.4813    505.49435    11869.264 
   28050    297.76853    206.12467   -3204.1555   -2761.2474    868.79002    11870.128 
   28100    302.27489    206.31512    -3210.504    -2760.893    861.60466    11871.126 
   28150    287.61999    205.79431   -3193.1438   -2765.3308    1336.5704    11872.346 
   28200    298.30295    206.13873   -3204.6244   -2760.9213    1034.5975    11873.931 
   28250    295.37902    206.04117   -3201.3723   -2762.0184    1079.1771      11875.8 
   28300    295.02549    206.07237   -3202.4124   -2763.5843    1029.6775    11877.949 
   28350    297.98832    206.16446    -3205.482   -2762.2469    852.55798    11880.355 
   28400    308.97428    206.48638   -3216.2126   -2756.6368    584.47055    11882.909 
   28450    295.37555     206.0857   -3202.8565   -2763.5078    949.61258    11885.523 
   28500    299.66554    206.21725   -3207.2418    -2761.512    721.49666    11888.313 
   28550    285.07353    205.78101   -3192.7002    -2768.675    982.21245    11891.242 
   28600    307.00792     206.3553   -3211.8434   -2755.1923    379.89643    11894.369 
   28650    307.22044    206.41395   -3213.7984   -2756.8313    416.58761    11897.442 
   28700    292.14324    205.96503   -3198.8344   -2764.2934    827.15751    11900.466 
   28750    302.73905    206.28635   -3209.5449   -2759.2436    448.36203    11903.604 
   28800    296.81873    206.16396   -3205.4654     -2763.97    486.86553     11906.73 
   28850    301.21016    206.24315   -3208.1049   -2760.0777    409.28165    11909.824 
   28900    293.80672    206.07063   -3202.3543   -2765.3391    558.62725    11912.871 
   28950    298.90116    206.21753   -3207.2511   -2762.6583    338.16429    11915.907 
   29000    294.46134    206.03194   -3201.0646   -2763.0756    350.81633    11918.858 
   29050     293.2572    205.98011   -3199.3371   -2763.1392    380.80035    11921.721 
   29100    294.72546    206.11589   -3203.8629   -2765.4811    355.05262    11924.503 
   29150    296.56303     206.1125   -3203.7501    -2762.635    331.67856    11927.191 
   29200    298.83357    206.12173   -3204.0575   -2759.5653    200.82698    11929.775 
   29250    288.93694    205.82867   -3194.2891   -2764.5173    393.63153    11932.211 
   29300    285.02815    205.69867   -3189.9557   -2765.9979    545.09153    11934.566 
   29350    288.23975    205.79641   -3193.2136   -2764.4788    459.69141    11936.934 
   29400    297.78322    206.10603   -3203.5344   -2760.6044    208.90466    11939.254 
   29450    292.20028    205.94413   -3198.1376   -2763.5118    275.44601    11941.427 
   29500    289.50729    205.83027   -3194.3423   -2763.7221    288.50595    11943.478 
   29550    285.25972    205.72319   -3190.7729   -2766.4707    369.58522    11945.408 
   29600    288.26795    205.78917   -3192.9723   -2764.1955    298.95293    11947.253 
   29650    300.32783    206.07556   -3202.5186   -2755.8037    18.983041    11948.983 
   29700     304.0082    206.17174   -3205.7246   -2753.5355   -102.75003    11950.465 
   29750    294.58707    205.89884   -3196.6281   -2758.4521    123.88824    11951.618 
   29800     297.5787    205.91989   -3197.3296   -2754.7038    94.964588    11952.538 
   29850    287.14984    205.69923   -3189.9744   -2762.8607     262.4082    11953.264 
   29900    305.86832    206.22825   -3207.6084   -2752.6524   -186.90415    11953.787 
   29950    285.15668    205.60516   -3186.8388   -2762.6898    424.05807    11953.995 
   30000    292.12055    205.76174    -3192.058   -2757.5508    283.88775    11954.099 
   30050    291.26027     210.6959   -3189.8633   -2756.6357    265.77082    11954.111 
   30100    297.43472    210.95217   -3198.4058   -2755.9942    78.234313    11953.984 
   30150    283.28137    210.35418   -3178.4727   -2757.1131    582.10966    11953.687 
   30200    302.27338    211.08899   -3202.9662   -2753.3575   -40.205637    11953.371 
   30250    291.16934    210.70608   -3190.2027   -2757.1103    236.07641    11952.831 
   30300    288.21379    210.59491   -3186.4971   -2757.8009    416.68943    11952.144 
   30350    277.79381    210.17728    -3172.576   -2759.3788    796.71601    11951.448 
   30400    290.21253    210.49959   -3183.3196   -2751.6505     506.3909    11950.868 
   30450    288.74291    210.48004   -3182.6681   -2753.1849    516.40458    11950.334 
   30500    293.06242    210.60499   -3186.8331    -2750.925    454.59373    11949.803 
   30550    288.50766    210.43136   -3181.0454   -2751.9121    602.37143    11949.272 
   30600    302.04781    210.78396   -3192.7988   -2743.5256    308.71084    11948.774 
   30650     298.7826    210.69679    -3189.893   -2745.4765    402.33806    11948.205 
   30700    308.22884    211.06397   -3202.1324   -2743.6653    119.37177     11947.56 
   30750    305.18704    210.85526   -3195.1752   -2741.2326    272.16295    11946.734 
   30800    302.62577    210.78206   -3192.7355   -2742.6026    396.44226    11945.786 
   30850    296.21025    210.50631   -3183.5436   -2742.9533    626.10794    11944.789 
   30900    309.60025    211.02181   -3200.7269     -2740.22    220.41197    11943.799 
   30950    295.77091    210.51155   -3183.7184   -2743.7816    636.62414     11942.72 
   31000    288.62307    210.23582   -3174.5274   -2745.2225    857.91353    11941.707 
   31050    293.19096    215.35624   -3178.5413    -2742.442     731.5741    11940.876 
   31100    300.61214    215.54421   -3184.8071   -2737.6693    629.75034    11940.179 
   31150    288.88288    215.12717   -3170.9058   -2741.2144    1016.8606    11939.608 
   31200    287.92277     215.0788   -3169.2932   -2741.0299    1000.4048    11939.293 
   31250    286.55547    215.08371    -3169.457   -2743.2274    1058.8705    11939.257 
   31300    300.77092    215.49585   -3183.1951   -2735.8211    786.47993    11939.511 
   31350    308.21989    215.71549   -3190.5162   -2732.0625    654.19055    11939.937 
   31400    307.82264    215.78058   -3192.6861   -2734.8233    694.86843    11940.463 
   31450    295.39533    215.34796   -3178.2654   -2738.8873    1125.9626    11941.124 
   31500    302.34271    215.49867   -3183.2889    -2733.577    915.28115    11942.085 
   31550    315.24522    215.85297    -3195.099   -2726.1956    484.59876    11943.267 
   31600    304.99707    215.45993   -3181.9975   -2728.3375    827.30996    11944.497 
   31650    308.81048    215.58335   -3186.1118   -2726.7796    679.79063    11945.868 
   31700    300.06448    215.33783   -3177.9276   -2731.6044     814.7042    11947.367 
   31750    292.10126    215.02013   -3167.3377   -2732.8593    1069.4502    11949.049 
   31800    291.50193    214.99341   -3166.4469   -2732.8599     1082.795    11951.035 
   31850    297.24475    215.09795   -3169.9318   -2727.8027    908.77154    11953.346 
   31900    309.53205    215.47516   -3182.5052   -2722.0997    584.77799    11955.867 
   31950    301.32769    215.26494   -3175.4981    -2727.296    769.19947    11958.477 
   32000    310.98716    215.65199   -3188.3997   -2725.8298    386.45691    11961.211 
   32050    300.98719    215.26045   -3175.3484   -2727.6528    641.13566    11963.931 
   32100    293.67837    214.94904   -3164.9679   -2728.1436    849.29767    11966.727 
   32150    306.42162    215.33385   -3177.7951   -2722.0161    478.96377    11969.697 
   32200    304.09068    215.42634   -3180.8781   -2728.5663    479.50189     11972.68 
   32250    287.67912    214.94291   -3164.7637   -2736.8628     881.3195    11975.704 
   32300    311.73313    215.66731   -3188.9103   -2725.2309     233.1019    11978.866 
   32350    282.15971    214.68378   -3156.1261   -2736.4349    1048.8387    11981.993 
   32400    294.25047    215.07175   -3169.0585   -2731.3832     631.8743    11985.352 
   32450    296.67093    215.14496   -3171.4987   -2730.2232    467.07699    11988.819 
   32500    290.54367    214.93688   -3164.5628   -2732.4011    627.37284     11992.31 
   32550    300.01209    215.30934   -3176.9781   -2730.7328    309.87477    11995.878 
   32600    286.31585    214.78254   -3159.4179   -2733.5447    654.59528    11999.407 
   32650      308.991    215.40266   -3180.0887    -2720.488     2.549356    12002.959 
   32700    300.28798    215.23218   -3174.4059   -2727.7503    210.69703    12006.325 
   32750    295.77888    214.97621   -3165.8735   -2725.9249    366.56689    12009.561 
   32800    309.82026    215.43961   -3181.3202    -2720.486    -117.2274    12012.707 
   32850    296.52121     215.1157   -3170.5234   -2729.4706     180.3671    12015.579 
   32900    289.11692    214.89839   -3163.2797   -2733.2402    378.59948    12018.296 
   32950    299.81738    215.17992   -3172.6641   -2726.7084    106.19556    12020.955 
   33000     303.6617    215.26138   -3175.3794   -2723.7056    5.4796257    12023.444 
   33050    300.90487    210.12239   -3170.7464   -2723.1732    30.532019    12025.691 
   33100    293.83022    209.84913   -3161.6377   -2724.5875    210.89147    12027.693 
   33150    298.68671    210.01924   -3167.3081   -2723.0342    56.293369    12029.527 
   33200    310.17867    210.40436   -3180.1453   -2718.7781   -399.89421    12031.104 
   33250     290.2591    209.83282   -3161.0939   -2729.3555     109.0547    12032.242 
   33300    283.79625    209.65799   -3155.2664   -2733.1409    393.66833    12033.163 
   33350    302.98521    210.17928   -3172.6427   -2721.9751   -21.676701    12034.009 
   33400    310.54381    210.38472   -3179.4906   -2717.5803   -169.26797     12034.59 
   33450    298.27226    209.98359   -3166.1197   -2722.4623    185.61448    12034.836 
   33500    309.61672    210.34491   -3178.1636   -2717.6322   -112.41157    12034.865 
   33550    311.78495     210.3022   -3176.7401   -2712.9837   -129.71758    12034.586 
   33600     300.2231    209.98195   -3166.0649   -2719.5058    211.44838    12033.972 
   33650    300.84076    210.03501   -3167.8336   -2720.3557    221.70252    12033.162 
   33700    299.04159      210.068   -3168.9335   -2724.1318    222.34729    12032.212 
   33750    296.67406    209.90136   -3163.3786   -2722.0984    332.24924     12031.12 
   33800    312.31531    210.31321   -3177.1071   -2712.5617   -68.844995      12029.9 
   33850    301.20616    210.01269   -3167.0897   -2719.0684    209.07671    12028.413 
   33900    294.94129    209.84811   -3161.6036   -2722.9007    376.59306    12026.756 
   33950    307.08369    210.22249    -3174.083   -2717.3193   -24.709222     12025.01 
   34000    313.14461    210.45969   -3181.9895   -2716.2107   -274.31844    12022.988 
   34050    305.81679    210.26038   -3175.3459   -2720.4666   -14.193508     12020.56 
   34100    298.61029    210.12892   -3170.9639   -2726.8037    259.67517    12017.842 
   34150    291.92153    209.83553   -3161.1845   -2726.9733    418.93414        12015 
   34200    310.02708    210.43137   -3181.0456   -2719.9038   -45.234504    12012.061 
   34250    293.41011    209.81255   -3160.4182   -2723.9929    626.78175    12008.885 
   34300    300.62315    209.98483   -3166.1611   -2719.0069    586.80569     12005.71 
   34350    297.55482    209.95033    -3165.011   -2722.4207    595.73907    12002.598 
   34400    303.88717    210.16638   -3172.2127   -2720.2035    379.86037    11999.504 
   34450    302.26484    210.10686   -3170.2288   -2720.6327    421.34635    11996.344 
   34500    306.63789    210.25506   -3175.1688   -2719.0682    297.46397    11993.128 
   34550    304.93795    210.24646   -3174.8819   -2721.3098    313.44152    11989.801 
   34600    300.08889    210.13655   -3171.2183   -2724.8588    453.24431    11986.354 
   34650    298.97205    210.19072   -3173.0239   -2728.3256    542.44888    11982.878 
   34700    305.07676    210.34882    -3178.294   -2724.5154    442.91176    11979.415 
   34750    311.89508     210.5587   -3185.2899   -2721.3696    249.50384    11975.906 
   34800    307.95745    210.40703   -3180.2345   -2722.1711    422.87715    11972.264 
   34850       305.77    210.33943   -3177.9809   -2723.1711    567.63702    11968.561 
   34900    297.47984    210.22838   -3174.2795   -2731.8008    804.66304    11964.892 
   34950    307.67885    210.44051   -3181.3504   -2723.7014     549.2322    11961.341 
   35000    306.97605    210.43729    -3181.243   -2724.6394    556.90572    11957.817 
   35050    310.41616    210.61794   -3187.2646    -2725.544    461.30465    11954.291 
   35100    293.32221    210.00906   -3166.9686    -2730.674     982.1677    11950.768 
   35150    299.34057    210.28098   -3176.0327   -2730.7863    833.99047    11947.451 
   35200    300.48887    210.41241   -3180.4138   -2733.4594    786.08814    11944.314 
   35250    303.60624    210.41374   -3180.4579   -2728.8666    727.62975    11941.322 
   35300    312.69527    210.85306   -3195.1021   -2729.9916    429.57998    11938.414 
   35350    291.13876     210.2084   -3173.6132   -2740.5664     1022.934    11935.505 
   35400    300.66915    210.49852   -3183.2841   -2736.0616    826.69886    11932.827 
   35450    303.11507    210.60682   -3186.8941   -2736.0334     741.4632    11930.328 
   35500    310.05491    210.87128   -3195.7092    -2734.526    470.67272    11927.939 
   35550    295.04939    210.49165   -3183.0548   -2744.1912     855.5271    11925.551 
   35600    290.91831    210.38792   -3179.5973   -2746.8784    1056.1347     11923.32 
   35650    292.65188    210.54281   -3184.7603   -2749.4628    1022.3722    11921.386 
   35700    301.63141    210.89078   -3196.3592   -2747.7054    763.14534    11919.708 
   35750    303.40013    210.94354   -3198.1181   -2746.8334    689.63926    11918.175 
   35800    295.51012    210.83476    -3194.492   -2754.9431    754.48257    11916.745 
   35850    298.46617    210.96273   -3198.7577   -2754.8119     662.9468    11915.431 
   35900    303.08184    211.13891   -3204.6303    -2753.819    571.84506     11914.19 
   35950    285.39969    210.62517   -3187.5057   -2762.9953    1021.1568    11913.006 
   36000    290.63617    210.82469   -3194.1564   -2761.8571    781.79361    11912.065 
   36050    290.92161    215.95537   -3198.5124   -2765.7885    645.95494    11911.306 
   36100     283.6034    215.75155   -3191.7183   -2769.8797    790.50035    11910.643 
   36150    283.75472     215.7823   -3192.7433   -2770.6797    671.17115    11910.143 
   36200    282.15506    215.65427   -3188.4756   -2768.7914     734.1719    11909.785 
   36250    291.73063    216.02786   -3200.9285   -2767.0013    490.64191     11909.54 
   36300    279.87846    215.68303   -3189.4344   -2773.1364    838.33079    11909.339 
   36350    293.94427    216.10754   -3203.5846   -2766.3647    436.38488    11909.291 
   36400    291.81083    216.08866   -3202.9554   -2768.9089     372.3346    11909.265 
   36450    287.00108    215.93035   -3197.6782   -2770.7858    545.84856    11909.207 
   36500     282.0352    215.83925   -3194.6417   -2775.1357    655.58705    11909.188 
   36550    289.50005    216.01813   -3200.6042   -2769.9948    436.31924    11909.252 
   36600    284.21092    215.84825   -3194.9418   -2772.1996    670.17316    11909.331 
   36650    288.03199     215.9845   -3199.4834   -2771.0577    582.61772    11909.497 
   36700    281.92966    215.85513   -3195.1711   -2775.8221    684.12182    11909.744 
   36750    275.57954    215.62028   -3187.3427    -2777.439     839.4441    11910.128 
   36800    281.47755    215.86582   -3195.5272   -2776.8507    636.21905    11910.696 
   36850    278.93829    215.79853   -3193.2842   -2778.3846    790.61477    11911.375 
   36900    290.95297    216.18781   -3206.2603   -2773.4898    432.42247    11912.214 
   36950    296.74746    216.29684   -3209.8946   -2768.5053    202.50295    11913.051 
   37000    297.45743    216.28541   -3209.5136   -2767.0682    220.85833    11913.761 
   37050    285.12048    215.84633   -3194.8777   -2770.7826    630.62295    11914.369 
   37100    286.01087    215.84272   -3194.7574   -2769.3379    631.30733    11915.037 
   37150    294.25335    216.01775   -3200.5918   -2762.9122    378.97454    11915.789 
   37200    282.67332    215.74023   -3191.3409   -2770.8858    685.32458    11916.527 
   37250    281.42993    215.73048   -3191.0161   -2772.4104    730.63128    11917.368 
   37300    292.28015     216.0189   -3200.6302   -2765.8856    437.51611     11918.34 
   37350    283.00898    215.75448   -3191.8159   -2770.8615    741.39507    11919.332 
   37400    277.87468    215.56636   -3185.5455    -2772.228    894.93699    11920.465 
   37450    283.56103    215.71065   -3190.3551   -2768.5795    762.51346    11921.826 
   37500    283.71068    215.69798   -3189.9326   -2767.9345    875.62213    11923.366 
   37550     288.2544    215.82092   -3194.0308   -2765.2742    728.04038    11925.125 
   37600    292.37817    215.83249   -3194.4165   -2759.5261    528.33421    11927.027 
   37650    297.05181    215.99173   -3199.7243   -2757.8822    343.50577    11928.957 
   37700    300.14923    216.03611   -3201.2036   -2754.7544    232.44949    11930.843 
   37750     296.8164    215.91396   -3197.1321   -2755.6402    407.59293    11932.608 
   37800    286.13967    215.62529   -3187.5097   -2761.8986    684.86675    11934.371 
   37850    289.01373    215.64775   -3188.2582   -2758.3722     592.6839    11936.245 
   37900    301.19776     215.9724   -3199.0799    -2751.071    359.62677    11938.187 
   37950    293.14948    215.62382   -3187.4608   -2751.4232    619.73846    11940.123 
   38000    299.88956     215.8066   -3193.5534   -2747.4904    424.19108    11942.118 
   38050    302.17542    215.92131   -3197.3769   -2747.9139    309.49556    11944.106 
   38100    293.83091    215.55914   -3185.3047   -2748.2535    591.34064    11946.035 
   38150    290.24427    215.43421   -3181.1404    -2749.424     657.1027    11948.028 
   38200    288.04632    215.29091   -3176.3635   -2747.9165    723.16318    11950.138 
   38250    277.81097      214.911   -3163.7001   -2750.4773    1103.9212    11952.407 
   38300    290.20121    215.30589    -3176.863   -2745.2107    802.43356    11954.994 
   38350    299.36638    215.58799   -3186.2663   -2740.9815    507.17836    11957.773 
   38400    290.45624     215.2536   -3175.1199   -2743.0882    654.49193    11960.597 
   38450    297.30554    215.40941   -3180.3138   -2738.0944    398.03031    11963.503 
   38500    296.59468    215.30825   -3176.9416   -2735.7795    481.99082    11966.404 
   38550     302.3316    215.62852   -3187.6173    -2737.922    335.48265    11969.297 
   38600    290.96609    215.18596   -3172.8655   -2740.0755    637.29271    11972.165 
   38650    313.00243    215.81858   -3193.9528   -2728.3854    82.172476    11975.073 
   38700    288.70961    214.96928   -3165.6428   -2736.2091    762.22211    11977.871 
   38750    307.75651    215.54958    -3184.986   -2727.2215    223.12247     11980.73 
   38800    298.42827    215.29318   -3176.4393   -2732.5499    422.45634    11983.518 
   38850    297.86084    215.22868   -3174.2893   -2731.2439    451.91544    11986.292 
   38900    293.34321    215.01852   -3167.2841   -2730.9583    545.37435    11989.087 
   38950    319.41402    215.88765    -3196.255   -2721.1509   -173.37335    11991.855 
   39000    293.12574    215.01412   -3167.1374   -2731.1351    627.84083    11994.388 
   39050    294.14722    215.06874   -3168.9581   -2731.4365    638.68043    11996.968 
   39100     288.4101    214.87093   -3162.3643   -2733.3762    708.41502    11999.667 
   39150    285.33253    214.80525   -3160.1751   -2735.7645     651.3973    12002.495 
   39200    301.64802    215.33412    -3177.804   -2729.1254    137.73429    12005.409 
   39250    292.45613    215.01163   -3167.0543    -2732.048    350.49804     12008.21 
   39300    296.55037    215.13013   -3171.0043   -2729.9081    234.82262    12010.934 
   39350    307.21044    215.35639   -3178.5465   -2721.5942   -21.519247    12013.525 
   39400    290.08195    214.79718   -3159.9058   -2728.4309    490.67564    12015.898 
   39450    295.05135    214.89789   -3163.2631   -2724.3965    381.49574     12018.27 
   39500    310.23373    215.49362   -3183.1208   -2721.6716   -175.08813     12020.59 
   39550    296.25709    215.04706   -3168.2354   -2727.5755    146.27879    12022.607 
   39600    287.94297    214.78715   -3159.5716   -2731.2783    396.66926     12024.45 
   39650    284.92931    214.70741   -3156.9137   -2733.1029    559.65687    12026.283 
   39700    300.77084    215.16917   -3172.3057   -2724.9319    99.689082    12028.156 
   39750    314.12007    215.57477   -3185.8258    -2718.596   -301.14289     12029.85 
   39800    307.77181    215.35962    -3178.654   -2720.8667   -33.111399    12031.157 
   39850    296.34564    215.05536    -3168.512   -2727.7203    163.55912    12032.191 
   39900    293.18261    214.93656    -3164.552    -2728.465    243.96362    12033.071 
   39950    301.97859    215.12872   -3170.9573   -2721.7871    88.530951    12033.816 
   40000    294.35252    214.83502   -3161.1675   -2723.3404    304.04019    12034.392 
   40050    306.94273    215.17174   -3172.3914   -2715.8374   -22.896129    12034.838 
   40100    295.75535    214.80771    -3160.257   -2720.3433    276.23618    12035.073 
   40150    302.16769    215.06992   -3168.9972   -2719.5457    57.880523    12035.154 
   40200    290.43245    214.79937    -3159.979   -2727.9827    332.75968    12035.042 
   40250    293.57251    214.81009   -3160.3363   -2723.6694    433.48853    12034.845 
   40300    296.20913    214.81158   -3160.3861   -2719.7974    385.26762    12034.634 
   40350    308.44655    215.13922   -3171.3074   -2712.5165    44.286129    12034.348 
   40400    298.82022    214.88306   -3162.7687   -2718.2962    274.24221    12033.845 
   40450    310.28136    215.27018   -3175.6727   -2714.1527   -107.00399    12033.199 
   40500    304.90027    215.11533   -3170.5109   -2716.9948   -11.507981     12032.28 
   40550    307.40825    215.19871   -3173.2904   -2716.0439   -40.227856    12031.059 
   40600    301.76235    214.95093   -3165.0309   -2716.1823    201.67685    12029.567 
   40650    299.00222     214.8199   -3160.6633   -2715.9202    337.78414    12027.901 
   40700     295.7038    214.65524   -3155.1747   -2715.3377    440.07394    12026.163 
   40750    307.21016    215.02634   -3167.5446   -2710.5928    207.58744    12024.381 
   40800    293.62454    214.69065   -3156.3551   -2719.6109    607.62181    12022.481 
   40850    297.14532    214.80608   -3160.2026   -2718.2215    554.01835    12020.607 
   40900    293.63757    214.58172    -3152.724   -2715.9604    722.95642    12018.791 
   40950     297.7993    214.78253   -3159.4177   -2716.4638    637.08075    12017.084 
   41000    287.57192    214.49925    -3149.975   -2722.2335    970.53086    12015.482 
   41050    297.81472     219.7092   -3156.9732   -2713.9964    686.61809    12014.121 
   41100    311.78767    220.09136   -3169.7122   -2705.9516    295.15758    12012.884 
   41150    315.72503    220.27261   -3175.7537   -2706.1367    231.80474    12011.552 
   41200    294.30704     219.6064   -3153.5466   -2715.7872    820.43763    12010.137 
   41250    295.65544     219.6882   -3156.2733   -2716.5082    770.09994    12008.864 
   41300    288.63601    219.46377   -3148.7924   -2719.4682    1034.9161    12007.775 
   41350     297.6194    219.75964   -3158.6546   -2715.9683    726.32919    12006.969 
   41400    312.62916    220.25909   -3175.3032    -2710.291    243.63165    12006.299 
   41450    306.77236    220.04421   -3168.1402   -2711.8396       417.97    12005.552 
   41500    319.65357    220.38032    -3179.344   -2703.8835    105.79094    12004.746 
   41550    308.78436    219.95961   -3165.3202   -2706.0269    461.18534    12003.779 
   41600    290.00623    219.32585   -3144.1952   -2712.8329    1074.6768     12002.81 
   41650    303.83678    219.74747   -3158.2489   -2706.3147    759.56965     12002.12 
   41700    293.77716    219.49347   -3149.7824   -2712.8111    1082.1866    12001.638 
   41750    296.27946    219.52169   -3150.7232   -2710.0299    993.12706    12001.471 
   41800    310.00334    219.94899   -3164.9664   -2703.8599    593.42215    12001.568 
   41850    301.74697    219.71237   -3157.0789   -2708.2532    857.90963     12001.77 
   41900    310.90627    220.01983   -3167.3275    -2704.878    623.59214    12002.151 
   41950    311.57558       219.93   -3164.3334   -2700.8883    715.11538    12002.644 
   42000    292.57287    219.26045   -3142.0149   -2706.8349    1369.3164    12003.311 
   42050    294.81748    219.30696   -3143.5653   -2705.0467    1312.9937    12004.419 
   42100    295.62309    219.30648   -3143.5494   -2703.8324    1218.4874    12005.996 
   42150    304.86735    219.54631   -3151.5438   -2698.0767    983.07996    12007.987 
   42200    314.80368    219.86773   -3162.2576   -2694.0109      681.505    12010.266 
   42250    313.21383     219.8033   -3160.1099   -2694.2281    665.42609    12012.692 
   42300     320.5636    220.05779   -3168.5929   -2691.7789    432.49703    12015.222 
   42350    310.92584    219.59559   -3153.1863   -2690.7077    862.67587    12017.786 
   42400    308.83788    219.41776   -3147.2585   -2687.8856    1140.7005    12020.563 
   42450    313.00986    219.46337   -3148.7789   -2683.2005    1096.9441    12023.713 
   42500    306.28311    219.20452   -3140.1508   -2684.5779    1203.5041    12027.231 
   42550    311.46468    219.40194   -3146.7313   -2683.4512    967.88061    12031.143 
   42600    313.93283    219.40322    -3146.774   -2679.8227    914.65587    12035.354 
   42650    295.52387    218.84582    -3128.194   -2688.6247     1349.443    12039.883 
   42700    317.54297    219.46604   -3148.8681    -2676.547    665.20397    12044.858 
   42750    323.39559     219.6293     -3154.31   -2673.2835    438.24825    12049.999 
   42800     318.7608    219.43334   -3147.7779   -2673.6454    617.62453    12055.173 
   42850    310.35895    219.06803    -3135.601   -2673.9655     873.7308    12060.465 
   42900     323.0304     219.4073   -3146.9099   -2666.4267    444.23719    12065.971 
   42950    310.03852    218.98729   -3132.9097   -2671.7509    851.60569    12071.541 
   43000    297.40006    218.54932   -3118.3107   -2675.9507    1187.9259    12077.361 
   43050    315.29557    219.11151   -3137.0504   -2668.0721    582.63066    12083.569 
   43100    321.05526    219.18437    -3139.479   -2661.9337    366.52153     12089.92 
   43150    314.14879    218.98114   -3132.7047   -2665.4322    518.96949     12096.28 
   43200    315.51372     219.0392   -3134.6399   -2665.3372    399.66008    12102.686 
   43250    316.99784    219.03186   -3134.3954   -2662.8851    270.67365    12109.102 
   43300    318.99294    219.11102   -3137.0341   -2662.5563    207.92832    12115.452 
   43350    327.47533    219.38866   -3146.2888   -2659.1941   -33.744198    12121.708 
   43400     323.9737    219.26715   -3142.2384   -2660.3521    5.6832644    12127.752 
   43450     320.4004    219.16013   -3138.6711   -2662.0998    18.828941    12133.569 
   43500    309.03982    218.73623    -3124.541   -2664.8676    330.97429    12139.207 
   43550    300.54375    218.46776    -3115.592   -2668.5559    603.72719    12144.804 
   43600    299.07786     218.3772   -3112.5735   -2667.7178    628.62076    12150.507 
   43650    297.35086    218.36877   -3112.2923   -2670.0054     571.0551    12156.352 
   43700    310.28698    218.83203   -3127.7345   -2666.2061      66.9312     12162.29 
   43750     307.8401      218.697   -3123.2333   -2665.3445    56.930772    12168.098 
   43800    311.34542    218.79669   -3126.5565   -2663.4537   -103.75632    12173.716 
   43850    299.04416    218.37197    -3112.399   -2667.5935    163.38609    12179.083 
   43900    294.62741    218.18512   -3106.1706   -2667.9347    231.12742    12184.319 
   43950    316.06307    218.82558   -3127.5192   -2657.3993   -370.66066    12189.449 
   44000    310.24494      218.637   -3121.2333   -2659.7674   -235.85782    12194.211 
[...]
   89400    277.24377    196.89674   -3229.8915   -2817.5124   -432.22497     11909.07 
   89450    271.98435    196.72843   -3224.2811    -2819.725   -431.59769    11912.353 
   89500     275.7028    196.89389   -3229.7963   -2819.7093   -628.11801    11915.097 
   89550    271.71733    196.68844   -3222.9479   -2818.7889   -530.61034    11917.236 
   89600    276.13814    196.92279   -3230.7596   -2820.0251   -749.76476    11918.779 
   89650    287.10984    197.25195   -3241.7318   -2814.6777   -1058.6258    11919.628 
   89700     276.5062    196.86409   -3228.8029   -2817.5209   -685.46413    11919.675 
   89750    280.13388    196.91081   -3230.3604   -2813.6824   -714.35235    11919.044 
   89800    270.69607    196.67114   -3222.3712   -2819.7313   -448.03798     11917.79 
   89850    270.89101    196.67451   -3222.4835   -2819.5536    -318.9237    11916.036 
   89900    270.38849    196.73286   -3224.4287   -2822.2463   -249.91902    11913.855 
   89950    273.71853    196.70239    -3223.413   -2816.2774   -284.49065    11911.286 
   90000    290.98902     197.2391   -3241.3033   -2808.4792   -707.45623    11908.282 
   90050    289.11725    197.12296   -3237.4321   -2807.3921   -634.26496    11904.676 
   90100    292.09297    197.20343   -3240.1142   -2805.6481   -648.82679    11900.463 
   90150    277.36057    196.75252   -3225.0839   -2812.5311   -119.85417    11895.684 
   90200    267.17159     196.3821   -3212.7366   -2815.3391    285.35095    11890.594 
   90250    280.37204    196.79058   -3226.3528   -2809.3206    22.371964    11885.387 
   90300     283.5089    196.87461   -3229.1538   -2807.4558    70.715559    11879.967 
   90350    282.89627    196.83567   -3227.8556   -2807.0688    204.91355    11874.352 
   90400    294.65269    197.12202   -3237.4007   -2799.1272   -48.133343    11868.582 
   90450    290.96802    197.02756   -3234.2519   -2801.4591    67.746765    11862.567 
   90500     277.9829    196.55462   -3218.4873   -2805.0088    561.84464    11856.365 
   90550    285.20056    196.81468   -3227.1559   -2802.9417    458.63499    11850.174 
   90600    280.95637     196.6043   -3220.1433    -2802.242    689.75205    11844.022 
   90650    298.41611    197.02113   -3234.0378   -2790.1665    343.58506    11837.952 
   90700    310.61539    197.40045   -3246.6815   -2784.6647    70.594591    11831.807 
   90750    291.82695    196.75638   -3225.2126   -2791.1421    752.87928    11825.498 
   90800    298.81919    196.99597   -3233.1991   -2788.7282    654.74608    11819.281 
   90850    291.27632    196.77983   -3225.9944    -2792.743    981.38724    11813.181 
   90900    294.06561    196.87138   -3229.0459   -2791.6455    1048.6496    11807.323 
   90950    284.78237    196.57098   -3219.0327   -2795.4405    1397.0137    11801.784 
   91000    297.99727    196.99281   -3233.0937   -2789.8454    1126.9318    11796.663 
   91050    296.13408    196.88786   -3229.5952   -2789.1182    1245.3452      11791.9 
   91100     295.9777    196.83823   -3227.9411   -2787.6967    1345.4039    11787.514 
   91150    300.02846    196.97239    -3232.413   -2786.1434    1298.8572     11783.54 
   91200    300.33212    196.97068    -3232.356   -2785.6348    1348.2425    11779.962 
   91250    286.67274     196.5817   -3219.3899   -2792.9859    1735.9449    11776.809 
   91300    297.15489    196.98636   -3232.8788   -2790.8834    1397.4347    11774.239 
   91350    306.62401    197.16512   -3238.8373   -2782.7574    1159.3874    11772.107 
   91400    302.12023    196.96393   -3232.1311   -2782.7501    1379.4914      11770.3 
   91450    300.88613    196.93861   -3231.2871   -2783.7418    1430.8293    11768.906 
   91500    314.64774    197.34274   -3244.7579   -2776.7432    1018.6274    11767.902 
   91550    304.73125    197.03068   -3234.3561   -2781.0915    1267.3006    11767.166 
   91600    318.31771    197.46921   -3248.9737   -2775.5002    923.03705    11766.735 
   91650     307.9029    197.13887   -3237.9623   -2779.9801    1232.5934    11766.502 
   91700    294.93547    196.81082   -3227.0272    -2788.333    1501.4369     11766.58 
   91750    308.81656    197.15902    -3238.634   -2779.2927    1144.6588    11767.083 
   91800    296.17015    196.83353   -3227.7843   -2787.2536    1530.9862    11767.906 
   91850    298.58108    196.85068   -3228.3561   -2784.2394    1499.0393    11769.186 
   91900    309.41443    197.17361   -3239.1204   -2778.8899    1153.8061    11770.901 
   91950    305.01969    197.03587   -3234.5291   -2780.8355    1273.7839    11772.892 
   92000    306.52259     197.0248   -3234.1601   -2778.2309    1197.7968    11775.199 
   92050    306.62216    197.08766   -3236.2552    -2780.178    1190.3411      11777.8 
   92100    301.67513    196.87773   -3229.2576   -2780.5387    1345.8827    11780.685 
   92150    298.45998    196.73481   -3224.4938   -2780.5572    1386.7805    11783.927 
   92200    288.72528    196.52344    -3217.448   -2787.9911    1561.6543    11787.554 
   92250    304.01889    196.88565   -3229.5216   -2777.3165    1190.7963    11791.619 
   92300    319.21638    197.30868   -3243.6228   -2768.8126    783.23882    11795.968 
   92350    316.78227    197.29996    -3243.332   -2772.1424    778.99464    11800.384 
   92400    285.47598    196.40902   -3213.6339     -2789.01     1510.086    11804.897 
   92450    290.21088    196.70289   -3223.4296   -2791.7629      1200.66    11809.791 
   92500    297.75099    196.83597   -3227.8657   -2784.9837    960.31585    11814.987 
   92550    303.29374    196.99695   -3233.2317   -2782.1052     739.8719    11820.331 
   92600    295.85536    196.86833   -3228.9442   -2788.8818    784.07653    11825.727 
   92650    298.97035    196.83148   -3227.7159   -2783.0201    621.88716    11831.165 
   92700    292.19825    196.57197   -3219.0657   -2784.4429    804.00627    11836.622 
   92750    301.12575    196.91294   -3230.4315   -2782.5297    523.91588    11842.127 
   92800    291.31755    196.62634   -3220.8779   -2787.5651     700.1528    11847.602 
   92850    287.72872    196.52102   -3217.3673   -2789.3927    681.34212    11853.104 
   92900    303.11083    196.86972   -3228.9905   -2778.1361    320.73495    11858.598 
   92950    297.81248    196.69987    -3223.329   -2780.3555    380.08238    11863.946 
   93000    293.56932    196.62786   -3220.9287   -2784.2666    382.25194    11869.145 
   93050    288.38664    201.47302   -3215.7672   -2786.8139    504.88543    11874.226 
   93100    295.75792    201.66851   -3222.2836   -2782.3661    269.43447    11879.232 
   93150    308.32635    201.95979   -3231.9931   -2773.3811   -63.644146    11884.055 
   93200    295.20489    201.53135   -3217.7118   -2778.6169     308.8585    11888.576 
   93250    288.47213    201.32703    -3210.901   -2781.8206    480.99553    11892.911 
   93300    290.41004    201.47558   -3215.8525   -2783.8896    296.28808    11897.159 
   93350    276.63812    201.04145   -3201.3817   -2789.9034     653.6284    11901.293 
   93400    288.18034    201.29471   -3209.8237   -2781.1773    418.61873    11905.428 
   93450    290.67461    201.34081   -3211.3603   -2779.0038    274.15523    11909.489 
   93500    291.02255    201.30441   -3210.1471   -2777.2731    250.20139    11913.382 
   93550    288.04198    201.17031    -3205.677   -2777.2364    278.19975    11917.107 
   93600      289.258    201.31594   -3210.5314   -2780.2821    155.41437     11920.65 
   93650    297.95287    201.51385   -3217.1282   -2773.9459   -90.378307    11923.959 
   93700    285.51261    201.07574   -3202.5246   -2777.8463    152.82674     11926.97 
   93750    293.41022    201.20435   -3206.8118   -2770.3863   -40.251862    11929.716 
   93800    296.30164    201.26652   -3208.8841   -2768.1579   -148.13388    11932.149 
   93850    294.49671     201.1774   -3205.9133   -2767.8718    29.296546    11934.207 
   93900    293.40349    201.10086    -3203.362   -2766.9466    142.28578     11935.98 
   93950    293.48166    201.03235   -3201.0785   -2764.5467    165.22571    11937.529 
   94000    285.24148    200.80481   -3193.4936   -2769.2185    404.67472    11938.885 
   94050    303.83628    201.39149   -3213.0497   -2761.1162   -138.63537    11940.112 
   94100    292.96025    200.96059   -3198.6864   -2762.9303    214.15542     11941.02 
   94150    301.09855    201.16584   -3205.5281   -2757.6668    92.803198    11941.714 
   94200    288.81159    200.75586   -3191.8621   -2762.2768    446.46768    11942.205 
   94250    312.59468    201.41223   -3213.7409     -2748.78   -150.01204    11942.567 
   94300    305.82111    201.17785   -3205.9284   -2751.0426     27.00624    11942.603 
   94350    303.31554    201.00847   -3200.2823   -2749.1235    248.99802    11942.342 
   94400    293.56116    200.73974   -3191.3248   -2754.6748    629.81264    11941.932 
   94450    313.53666    201.26632   -3208.8773   -2742.5152    181.01167    11941.497 
   94500    303.98877    200.92862   -3197.6206   -2745.4603    487.94081    11940.913 
   94550    296.55875    200.69789   -3189.9297   -2748.8211    728.02179    11940.276 
   94600    296.00644    200.60438   -3186.8128   -2746.5256    656.55086     11939.71 
   94650    302.63061     200.7582   -3191.9401      -2741.8    411.67617     11939.19 
   94700    304.61869    200.89039   -3196.3464   -2743.2492    326.78287    11938.612 
   94750    307.33038    200.87264   -3195.7546   -2738.6239    366.55245    11937.929 
   94800    325.01785    201.44002   -3214.6672   -2731.2278   -59.927882    11937.092 
   94850    303.66249     200.7932   -3193.1067   -2741.4318    579.92039    11935.975 
   94900    307.99216    200.94563   -3198.1875   -2740.0725    486.95175    11934.815 
   94950    310.71614    200.90984   -3196.9946   -2734.8279    460.94008    11933.626 
   95000     314.7585     200.9755   -3199.1834    -2731.004    410.23151     11932.37 
   95050    311.98288    200.87578   -3195.8592   -2731.8083    401.20974    11931.041 
   95100    319.76305    201.08632   -3202.8773    -2727.254    287.09511    11929.607 
   95150    311.64377    200.89568   -3196.5226   -2732.9761    644.91013    11928.051 
   95200    310.86112    200.84369   -3194.7897   -2732.4073    746.24858     11926.51 
   95250    305.77694    200.65689    -3188.563   -2733.7429    869.37996    11925.062 
   95300    295.65805    200.42303   -3180.7678   -2740.9988    1055.1373    11923.784 
   95350    316.47579    200.98668   -3199.5561   -2728.8223    481.11748    11922.709 
   95400    292.04619    200.27991   -3175.9969   -2741.6003    1108.9751    11921.672 
   95450    317.90582    201.08582   -3202.8607   -2729.9999    437.36006    11920.836 
   95500    327.29016    201.42705    -3214.235   -2727.4157     136.2357    11919.948 
   95550    311.94569    200.98439   -3199.4797   -2735.4841    625.79999    11918.857 
   95600    293.40867    200.47968   -3182.6558   -2746.2327    1228.7858    11917.807 
   95650    302.30479    200.77737    -3192.579   -2742.9235     1078.349    11917.055 
   95700    304.06795    200.77933   -3192.6443   -2740.3662    952.09585    11916.581 
   95750    316.03833    201.09945   -3203.3149   -2733.2319    525.59146    11916.284 
   95800    309.94148    201.00349   -3200.1163   -2739.1018    635.45679    11915.981 
   95850    314.09941    201.12488   -3204.1626   -2736.9635    569.23796    11915.687 
   95900    310.23106    201.09864   -3203.2878   -2741.8427    599.77624    11915.409 
   95950    306.41037    200.98417   -3199.4723   -2743.7101      678.668    11915.146 
   96000    310.80554    200.98208   -3199.4028   -2737.1031    674.09519    11914.918 
   96050    303.27891    200.81033   -3193.6776   -2742.5732    889.67458    11914.744 
   96100    302.76738      200.927   -3197.5665    -2747.223     882.3735    11914.729 
   96150    302.43771    200.88782   -3196.2608   -2746.4077    841.58225    11914.874 
   96200    309.31947    201.13924   -3204.6413    -2744.552    584.99886    11915.138 
   96250    308.26201     201.0638   -3202.1268   -2743.6104    626.90362     11915.44 
   96300    303.21855    200.92918   -3197.6394   -2746.6248    766.58387    11915.763 
   96350    301.23926    200.81139   -3193.7129   -2745.6423    862.22016     11916.18 
   96400    310.94325    201.19693   -3206.5644   -2744.0599    490.22417    11916.727 
   96450    306.43664    201.06043   -3202.0144   -2746.2132    532.32821    11917.256 
   96500    299.63992    200.89881    -3196.627   -2750.9353     688.8371    11917.764 
   96550    304.48329    201.02582   -3200.8608    -2747.965    476.92988     11918.32 
   96600    320.68181    201.56956   -3218.9853   -2741.9954   -76.715032    11918.794 
   96650    298.09749    200.84751    -3194.917   -2751.5196    508.85661    11919.005 
   96700     299.8314    201.03741   -3201.2469   -2755.2704    342.05057    11919.144 
   96750    310.56406    201.31593   -3210.5309   -2748.5904    49.962473     11919.16 
   96800     305.9612    201.21523   -3207.1743   -2752.0802    273.95465    11918.935 
   96850    299.04057    200.99012   -3199.6706   -2754.8704    587.48273    11918.564 
   96900    285.22901    200.53055   -3184.3515    -2760.095    975.19269    11918.207 
   96950    309.03929    201.23244   -3207.7479   -2748.0753    279.06439    11918.007 
   97000    304.25759    201.14847   -3204.9489   -2752.3888     333.7979    11917.698 
   97050    282.16666    205.49489    -3183.163   -2763.4615    873.49691    11917.291 
   97100    286.33929    205.65391   -3188.4636   -2762.5556    754.29962    11917.036 
   97150    292.34201    205.92203   -3197.4011   -2762.5645    579.04831    11916.907 
   97200     303.7347    206.26039   -3208.6795   -2756.8972     247.0831    11916.791 
   97250     295.1803    205.99884   -3199.9612   -2760.9028    471.81244    11916.551 
   97300    285.98653    205.73238   -3191.0793    -2765.696    717.62957    11916.287 
   97350    295.77097    206.12414    -3204.138   -2764.2011    425.14128      11916.1 
   97400    293.75179    206.11004   -3203.6681   -2766.7345    497.16477    11915.884 
   97450    285.70269    205.85815   -3195.2718   -2770.3107    684.21533    11915.673 
   97500    285.05189    205.92535   -3197.5117   -2773.5187      608.049    11915.548 
   97550    293.21334    206.13444   -3204.4813   -2768.3487    421.24491    11915.458 
   97600    280.37188    205.69428   -3189.8093   -2772.7774    770.40578    11915.358 
   97650    296.90361     206.1637   -3205.4565   -2763.8349    373.41861    11915.341 
   97700    290.68529    205.91542   -3197.1805   -2764.8082    470.19627    11915.283 
   97750    300.14419    206.30864    -3210.288   -2763.8463    154.54445     11915.17 
   97800    296.37919    206.18511   -3206.1704   -2765.3288    338.59737    11914.902 
   97850    297.76853     206.2235   -3207.4499   -2764.5418    311.27853    11914.509 
   97900    301.77058    206.27089   -3209.0297   -2760.1689    176.01476    11913.991 
   97950    297.27621    206.14456   -3204.8187   -2762.6428    249.58727    11913.306 
   98000    305.88637    206.33353   -3211.1175   -2756.1347    115.89913    11912.446 
   98050    279.41739    205.55011   -3185.0036   -2769.3914    911.16173    11911.425 
   98100    290.09323    205.86218   -3195.4061   -2763.9144    663.20053    11910.557 
   98150    305.14463    206.37471   -3212.4904   -2758.6109     170.2946    11909.762 
   98200    303.43275    206.28282   -3209.4272    -2758.094     243.7174    11908.816 
   98250    295.95563    206.03447   -3201.1492   -2760.9376     512.4323    11907.719 
   98300    291.66635    206.00592   -3200.1974   -2766.3658    627.64482    11906.601 
   98350     288.3671    205.95082   -3198.3608   -2769.4366    715.14168    11905.558 
   98400    279.43997    205.63495   -3187.8315   -2772.1858     1020.678    11904.639 
   98450    300.78435    206.22748   -3207.5828   -2760.1889    365.35489    11903.945 
   98500    317.65649    206.79429   -3226.4763   -2753.9863   -138.86918    11903.159 
   98550    296.00919    206.09723    -3203.241   -2762.9498    521.45555    11902.076 
   98600    293.44274    206.05685   -3201.8951   -2765.4212    630.89686     11900.96 
   98650    292.39441    206.04999   -3201.6665    -2766.752    711.80511    11899.893 
   98700    295.47708    206.06532   -3202.1773   -2762.6776    735.23136    11898.933 
   98750    305.72804    206.42894   -3214.2979   -2759.5506    421.16819    11898.085 
   98800    302.92062    206.33592   -3211.1973   -2760.6258    416.36179    11897.196 
   98850    297.46563    206.15355   -3205.1183   -2762.6607    645.27934    11896.241 
   98900    288.31225    205.82079   -3194.0263   -2765.1836    990.83731    11895.377 
   98950    313.41426    206.52273   -3217.4242   -2751.2442    376.43371    11894.702 
   99000    310.22346    206.31996   -3210.6652   -2749.2313     523.5317    11893.981 
   99050     302.2435    206.07224   -3202.4081   -2752.8438    758.17255    11893.252 
   99100    289.91973    205.71716   -3190.5718   -2759.3382    1149.9986    11892.652 
   99150    281.13576    205.45511   -3181.8371   -2763.6689    1393.9036    11892.385 
   99200    311.47055    206.24006    -3208.002   -2744.7131    618.03751    11892.515 
   99250    300.28322    205.90484   -3196.8281   -2750.1796    990.46468    11892.762 
   99300    304.21316    206.04002    -3201.334     -2748.84     950.4184    11893.209 
   99350    305.58673    205.97608   -3199.2028   -2744.6657    949.61198    11893.874 
   99400    299.52718    205.73027   -3191.0089   -2745.4849    1184.7087    11894.753 
   99450    302.44431    205.82628   -3194.2092   -2744.3462    1106.1022     11895.94 
   99500    320.22366    206.28399   -3209.4664    -2733.158    642.73505    11897.399 
   99550    314.87722    206.06022   -3202.0075   -2733.6515    850.37167    11898.913 
   99600    301.09494    205.55995   -3185.3316   -2737.4757    1257.6477    11900.578 
   99650    314.20939    205.86259   -3195.4197   -2728.0571      908.453    11902.579 
   99700    323.84463     206.0546   -3201.8201   -2720.1258    687.59019    11904.768 
   99750    315.49268    205.67275   -3189.0915   -2719.8201    1040.9166    11907.029 
   99800     307.0366    205.41518   -3180.5059   -2723.8122    1299.3912    11909.523 
   99850     299.1343    205.20742   -3173.5807   -2728.6411    1464.2963    11912.414 
   99900     314.6714     205.4741   -3182.4701   -2714.4203    1108.5355    11915.757 
   99950    315.61434    205.53402   -3184.4674    -2715.015     1099.054    11919.396 
  100000    319.22072    205.64281   -3188.0936    -2713.277    1000.5291    11923.304 
Loop time of 27.3247 on 1 procs for 100000 steps with 500 atoms

Performance: 316.198 ns/day, 0.076 hours/ns, 3659.695 timesteps/s
99.8% CPU use with 1 MPI tasks x 1 OpenMP threads

MPI task timing breakdown:
Section |  min time  |  avg time  |  max time  |%varavg| %total
---------------------------------------------------------------
Pair    | 22.121     | 22.121     | 22.121     |   0.0 | 80.96
Bond    | 0.0088055  | 0.0088055  | 0.0088055  |   0.0 |  0.03
Neigh   | 0.50227    | 0.50227    | 0.50227    |   0.0 |  1.84
Comm    | 0.7828     | 0.7828     | 0.7828     |   0.0 |  2.86
Output  | 0.018427   | 0.018427   | 0.018427   |   0.0 |  0.07
Modify  | 2.7407     | 2.7407     | 2.7407     |   0.0 | 10.03
Other   |            | 1.151      |            |       |  4.21

Nlocal:    500 ave 500 max 500 min
Histogram: 1 0 0 0 0 0 0 0 0 0
Nghost:    1603 ave 1603 max 1603 min
Histogram: 1 0 0 0 0 0 0 0 0 0
Neighs:    14649 ave 14649 max 14649 min
Histogram: 1 0 0 0 0 0 0 0 0 0

Total # of neighbors = 14649
Ave neighs/atom = 29.298
Ave special neighs/atom = 0
Neighbor list builds = 606
Dangerous builds = 0

write_data      ${walker}/final_restart_file
write_data      6/final_restart_file

quit
