LAMMPS (19 May 2017)
Processor partition = 6
  using 1 OpenMP thread(s) per MPI task
# gREM variables
variable        lambda world 1000 1005 1010 1015 1020 1025 1030 1035 1040 1045 1050 1055 1060 1065 1070 1075
variable        walker world 0 1 2 3 4 5 6 7 8 9 10 11 12 13 14 15
variable        replica world 1 3 7 2 4 6 5 8 11 14 0 10 12 13 9 15

variable        T0 equal 300.0
variable        press equal 0.0

units           real
atom_style      full
pair_style      lj/cut 5.0

# LJ particles
read_data       ${walker}/restart_file
read_data       6/restart_file
  orthogonal box = (1.03352 1.03352 1.03352) to (23.9665 23.9665 23.9665)
  1 by 1 by 1 MPI processor grid
  reading atoms ...
  500 atoms
  reading velocities ...
  500 velocities
  0 = max # of 1-2 neighbors
  0 = max # of 1-3 neighbors
  0 = max # of 1-4 neighbors
  1 = max # of special neighbors

#dump            dump all xyz 1000 ${walker}/dump.xyz

fix             fxnpt all npt temp ${T0} ${T0} 1000.0 iso ${press} ${press} 10000.0
fix             fxnpt all npt temp 300 ${T0} 1000.0 iso ${press} ${press} 10000.0
fix             fxnpt all npt temp 300 300 1000.0 iso ${press} ${press} 10000.0
fix             fxnpt all npt temp 300 300 1000.0 iso 0 ${press} 10000.0
fix             fxnpt all npt temp 300 300 1000.0 iso 0 0 10000.0
fix             fxgREM all grem ${lambda} -.03 -30000 fxnpt
fix             fxgREM all grem 1030 -.03 -30000 fxnpt
thermo_modify   press fxgREM_press

thermo          50
thermo_style    custom step temp f_fxgREM pe etotal press vol
WARNING: New thermo_style command, previous thermo_modify settings will be lost (../output.cpp:705)
timestep        1.0

temper/grem     100000 1000 ${lambda} fxgREM fxnpt 10294 98392 ${walker}
temper/grem     100000 1000 1030 fxgREM fxnpt 10294 98392 ${walker}
temper/grem     100000 1000 1030 fxgREM fxnpt 10294 98392 6
Neighbor list info ...
  update every 1 steps, delay 10 steps, check yes
  max neighbors/atom: 2000, page size: 100000
  master list distance cutoff = 7
  ghost atom cutoff = 7
  binsize = 3.5, bins = 7 7 7
  1 neighbor lists, perpetual/occasional/extra = 1 0 0
  (1) pair lj/cut, perpetual
      attributes: half, newton on
      pair build: half/bin/newton
      stencil: half/bin/3d/newton
      bin: standard
Per MPI rank memory allocation (min/avg/max) = 5.723 | 5.723 | 5.723 Mbytes
Step Temp f_fxgREM PotEng TotEng Press Volume 
       0    306.02118    224.60808   -3153.6027   -2698.4194    277.27803    12060.927 
      50     295.9288    224.35781   -3145.2602   -2705.0885    523.91807    12060.941 
     100    306.01751    224.62312   -3154.1039   -2698.9261     406.1294    12060.996 
     150    286.43024    224.00091   -3133.3635   -2707.3203    1014.0139    12061.103 
     200    300.60332    224.43644   -3147.8812   -2700.7565    464.14414    12061.452 
     250    307.11534    224.67183   -3155.7277   -2698.9169    217.97803    12061.836 
     300    301.74916    224.40513   -3146.8375   -2698.0085    470.44471    12062.134 
     350    297.88545    224.29166   -3143.0553   -2699.9732    585.41422    12062.451 
     400    302.58367    224.42412   -3147.4706   -2697.4004    491.02586    12062.841 
     450     295.1849    224.17681   -3139.2271   -2700.1619    709.38388    12063.293 
     500    292.63272    224.08268   -3136.0894   -2700.8204    734.67901    12063.893 
     550    306.80052    224.49394    -3149.798   -2693.4555    284.88796    12064.635 
     600    316.02371    224.82038   -3160.6792   -2690.6179   -20.394596    12065.308 
     650    303.90149     224.4911   -3149.7034   -2697.6729    295.37861     12065.77 
     700    304.07531    224.42785   -3147.5949   -2695.3059    322.69854     12066.14 
     750    289.14437    223.92454   -3130.8179   -2700.7376    806.94538    12066.477 
     800     291.6217     223.9964   -3133.2135   -2699.4483    838.61885    12066.997 
     850    311.88456    224.70818   -3156.9395   -2693.0348    234.93435    12067.713 
     900    301.75679     224.3832   -3146.1066   -2697.2662    563.45995    12068.372 
     950    286.27281    223.91248   -3130.4159   -2704.6068    964.32824    12069.101 
    1000    301.47925    224.44362   -3148.1208   -2699.6932    440.21457    12070.065 
    1050    291.48425    224.06293   -3135.4312   -2701.8704    733.26765    12071.089 
    1100    287.73898    223.84245   -3128.0818   -2700.0918     855.2081    12072.274 
    1150    296.26664    224.12743   -3137.5811   -2696.9069    572.11999    12073.683 
    1200    297.00358    224.15942   -3138.6474   -2696.8771    525.29677    12075.194 
    1250    300.76264    224.34656   -3144.8854   -2697.5238    373.60874     12076.75 
    1300    309.80044    224.68597    -3156.199   -2695.3943   -35.711362    12078.267 
    1350    312.36173    224.73893   -3157.9643   -2693.3499   -129.68867     12079.55 
    1400    295.90775    224.20206   -3140.0686   -2699.9283    450.99103    12080.564 
    1450    295.16049    224.20105   -3140.0348    -2701.006    506.24821    12081.578 
    1500    300.98984    224.38248   -3146.0828   -2698.3832    271.39782     12082.63 
    1550    296.84264    224.13995   -3137.9985   -2696.4675    427.99618    12083.609 
    1600    288.74635    223.92299   -3130.7663    -2701.278    664.76278    12084.588 
    1650    294.54218    224.10758   -3136.9192   -2698.8101    443.87716    12085.679 
    1700    298.84293    224.18118   -3139.3728   -2694.8666     380.1555    12086.798 
    1750    300.00399    224.16457   -3138.8191   -2692.5859    329.84443    12087.901 
    1800    306.37771    224.43098   -3147.6994   -2691.9858    85.602803    12088.933 
    1850    299.26242    224.13687   -3137.8958   -2692.7656    314.65676     12089.81 
    1900    299.70382    224.16858   -3138.9526   -2693.1659     378.4238    12090.622 
    1950    299.65314    224.20658   -3140.2193    -2694.508    433.21085    12091.405 
    2000    306.17592    224.38743   -3146.2478   -2690.8343    259.42299    12092.194 
    2050    300.31532    229.26379   -3142.1263     -2695.43    404.11445    12092.922 
    2100    299.89047    229.17531   -3139.1771   -2693.1128    440.57104    12093.639 
    2150     300.2875    229.18833   -3139.6111   -2692.9562    338.82077    12094.388 
    2200    298.75011    229.07084   -3135.6945   -2691.3264    340.17707    12095.106 
    2250    304.14205     229.2437   -3141.4568   -2689.0685    173.27576    12095.773 
    2300    307.88033    229.40251   -3146.7503   -2688.8016     5.364305    12096.323 
    2350    294.89769    228.90486   -3130.1619   -2691.5239    418.39428    12096.696 
    2400    301.71423    229.11612   -3137.2039   -2688.4269    331.02898    12097.045 
    2450    309.45867    229.31821   -3143.9402   -2683.6439    132.90427     12097.36 
    2500    307.94221    229.16511   -3138.8371   -2680.7964    223.79222    12097.543 
    2550    303.91969     229.0656     -3135.52   -2683.4625    415.31141    12097.628 
    2600    294.07522    228.67349   -3122.4497   -2685.0351    810.25992    12097.733 
    2650    289.65561    228.51298   -3117.0992   -2686.2584     1007.528    12098.051 
    2700    298.17074    228.71442   -3123.8141   -2680.3077    805.14369     12098.69 
    2750    302.65602    228.86372   -3128.7905   -2678.6126    664.91765    12099.549 
    2800    304.60692    228.91082   -3130.3606   -2677.2809    563.06927    12100.559 
    2850    311.42287    229.17403   -3139.1343   -2675.9164    244.54849    12101.648 
    2900    312.20353      229.201   -3140.0333   -2675.6543    225.10409    12102.659 
    2950    300.42207     228.7076   -3123.5867   -2676.7316    641.52368    12103.601 
    3000    295.76637    228.52096   -3117.3655   -2677.4354    807.13714     12104.66 
    3050     302.2984    228.70591   -3123.5304   -2673.8845    587.60022    12105.915 
    3100    312.12616    229.01004    -3133.668    -2669.404    321.58492    12107.273 
    3150    316.84242    229.02279   -3134.0929   -2662.8138    333.61685      12108.6 
    3200    308.75416     228.7445   -3124.8166   -2665.5682    546.29738    12109.902 
    3250    312.52011    228.89084   -3129.6946   -2664.8446    378.43441    12111.262 
    3300    305.02052    228.54913   -3118.3044   -2664.6095    751.32943    12112.632 
    3350    300.59711    228.47609   -3115.8698   -2668.7543    880.35462    12114.174 
    3400    303.43732    228.51536   -3117.1788   -2665.8388     756.9047    12115.969 
    3450    309.98384    228.70053   -3123.3509   -2662.2734     606.5095    12117.945 
    3500    304.59686    228.58747   -3119.5822   -2666.5175    689.75766    12120.051 
    3550    301.04763    228.45531   -3115.1771   -2667.3915    792.44864    12122.322 
    3600    302.64806    228.49847   -3116.6158   -2666.4497    733.16038    12124.812 
    3650    317.65478    228.93011   -3131.0038   -2658.5163     360.4359    12127.471 
    3700    300.80826    228.31977   -3110.6589   -2663.2294    916.55698    12130.174 
    3750    313.27205    228.75868   -3125.2894    -2659.321    508.70299    12133.091 
    3800    311.91435     228.6809   -3122.6968   -2658.7478    480.49784    12136.093 
    3850    300.80325    228.31362    -3110.454   -2663.0319    761.19725    12139.148 
    3900    305.49467    228.49583   -3116.5278   -2662.1276    523.92061    12142.393 
    3950    307.21799    228.52943   -3117.6478   -2660.6843    391.54067    12145.734 
    4000    292.95817    227.95835   -3098.6115   -2662.8585    798.43936    12149.096 
    4050    311.94427    228.57464   -3119.1547   -2655.1613    153.10934    12152.628 
    4100    305.59547    228.48754   -3116.2514   -2661.7013    333.02858    12156.081 
    4150    300.17001    228.22172   -3107.3908   -2660.9107    628.97167    12159.498 
    4200    317.66133    228.72577   -3124.1922   -2651.6951    113.21261    12163.014 
    4250    306.75834    228.33773   -3111.2577   -2654.9779    376.54579    12166.429 
    4300     304.3108    228.19549   -3106.5164   -2653.8771    379.95494    12169.811 
    4350    315.88342    228.61276   -3120.4254   -2650.5728   -65.048132    12173.171 
    4400    302.46322    228.15474   -3105.1581   -2655.2669    351.62284    12176.336 
    4450    304.03949    228.25117   -3108.3722   -2656.1365    255.94555    12179.437 
    4500    317.96258    228.76707   -3125.5691   -2652.6239   -272.27568    12182.443 
    4550     306.0117    228.32714   -3110.9046   -2655.7354    99.153325    12185.125 
    4600     299.6884    228.01349   -3100.4497    -2654.686    331.16585    12187.644 
    4650    308.07546    228.25805   -3108.6017   -2650.3628    13.042731    12190.103 
    4700    310.94083    228.36391   -3112.1303   -2649.6294    -150.8385    12192.361 
    4750    318.58063    228.59882   -3119.9606    -2646.096   -362.66245    12194.301 
    4800    312.61054    228.48482   -3116.1605    -2651.176   -206.59364     12195.85 
    4850    311.69063    228.44295   -3114.7649   -2651.1487   -137.93449     12197.06 
    4900    299.36202    228.04774   -3101.5912   -2656.3129    264.44136    12197.992 
    4950    294.75736    227.87992   -3095.9973   -2657.5681    453.60747    12198.841 
    5000    303.41039    228.19368   -3106.4559   -2655.1559    276.20124    12199.702 
    5050    290.94204    227.83523   -3094.5076   -2661.7534    568.28654    12200.527 
    5100    304.62614    228.28125   -3109.3751   -2656.2668    42.875881    12201.382 
    5150    305.90303    228.36742   -3112.2472   -2657.2396   -132.60834    12202.065 
    5200    302.48297    228.25646   -3108.5487   -2658.6282   -41.755357    12202.474 
    5250    293.36688    227.89411   -3096.4704   -2660.1094    308.52669    12202.683 
    5300    299.29462    228.12936    -3104.312    -2659.134    109.66133    12202.812 
    5350    303.09538    228.36547   -3112.1824    -2661.351   -56.966704    12202.769 
    5400    294.70549    228.09401   -3103.1338   -2664.7817    208.11708    12202.515 
    5450    304.51469    228.38342   -3112.7805    -2659.838   -20.605251    12202.109 
    5500    296.49877    228.19937   -3106.6458   -2665.6264    154.66516    12201.493 
    5550    298.61654    228.32844   -3110.9479   -2666.7785     63.21095    12200.746 
    5600    293.47254    228.16519   -3105.5063   -2668.9882    235.97986    12199.839 
    5650    298.13587    228.30789   -3110.2629   -2666.8084    105.15518    12198.815 
    5700    303.67203    228.52956   -3117.6521    -2665.963   -171.15075    12197.633 
    5750    302.76016     228.5549   -3118.4967   -2668.1639   -184.70268    12196.152 
    5800    294.86508    228.38339   -3112.7795   -2674.1901    92.184754    12194.374 
    5850    286.83754    228.17593   -3105.8644   -2679.2153     302.2927    12192.444 
    5900    299.09165    228.63008   -3121.0028   -2676.1266   -73.548776    12190.418 
    5950    309.85571     229.0016   -3133.3868   -2672.4999   -356.41228    12188.139 
    6000    309.68355    229.04859    -3134.953   -2674.3222   -379.79721    12185.454 
    6050    295.21233    233.51834    -3117.278    -2678.172   -12.510031     12182.36 
    6100    296.33588    233.59597   -3119.8658   -2679.0886   -121.45857    12179.026 
    6150     292.9192    233.65925    -3121.975   -2686.2799   -88.918762     12175.43 
    6200    293.68454      233.618   -3120.5999   -2683.7664    -70.67743    12171.575 
    6250    297.89296    233.81204   -3127.0679   -2683.9747   -145.67249    12167.468 
    6300    298.74465    233.89721   -3129.9069   -2685.5469   -132.76737    12163.074 
    6350    297.38177    233.89432   -3129.8107   -2687.4779   -159.38675    12158.391 
    6400    283.86524    233.50232    -3116.744    -2694.516    205.90802    12153.429 
    6450    268.76199    232.93557   -3097.8522   -2698.0892    707.91847    12148.394 
    6500    279.48151    233.30694   -3110.2313   -2694.5238    471.19463    12143.499 
    6550    294.15337    233.92568    -3130.856   -2693.3252    24.457419    12138.649 
    6600    290.64465    233.88121   -3129.3738   -2697.0619    53.811203    12133.629 
    6650     286.7705    233.74249   -3124.7496   -2698.2002    176.98669    12128.425 
    6700    288.24225    233.90149   -3130.0497   -2701.3112    122.91602    12123.112 
    6750    285.86613    233.81066   -3127.0221    -2701.818    320.89583    12117.671 
    6800    281.45166    233.71173   -3123.7243   -2705.0863    533.46064    12112.204 
    6850    286.37433    233.82848    -3127.616   -2701.6559    391.47982    12106.814 
    6900    292.11951    234.07896   -3135.9653   -2701.4596     216.9549     12101.42 
    6950    291.33591    234.05334   -3135.1113   -2701.7712    283.52455    12095.957 
    7000    293.15246    234.14868   -3138.2892   -2702.2472    281.81964    12090.439 
    7050    285.82768     238.9344   -3131.1466   -2705.9996    519.51845    12084.889 
    7100    292.79494    239.12331   -3137.4436   -2701.9333    382.42134    12079.409 
    7150    306.44412    239.59774    -3153.258   -2697.4456     50.34979    12073.935 
    7200    290.30935    239.07547   -3135.8491   -2704.0359    638.38749    12068.342 
    7250    293.16461    239.18321   -3139.4405   -2703.3804    676.38189    12062.856 
    7300    290.01618    239.06465   -3135.4884   -2704.1113    892.12282    12057.554 
    7350    283.16475    238.83949   -3127.9829   -2706.7968    1221.2799    12052.546 
    7400    287.23864    239.04306   -3134.7686   -2707.5229    1092.8896    12047.996 
    7450    299.85607    239.45529   -3148.5098   -2702.4966    717.73663     12043.82 
    7500    297.24987    239.38424   -3146.1413   -2704.0047    790.85831    12039.867 
    7550    303.87685    239.65413   -3155.1377   -2703.1439    633.53105     12036.12 
    7600    292.75004    239.22069   -3140.6898   -2705.2463    1105.5624    12032.557 
    7650    293.55151    239.27362   -3142.4538   -2705.8182    1092.3495    12029.375 
    7700     294.2645    239.36585   -3145.5283   -2707.8321    975.61747    12026.578 
    7750     291.8475    239.28235   -3142.7448   -2708.6438     1071.263    12024.128 
    7800    284.33087    238.94479   -3131.4931   -2708.5725    1369.0326    12022.083 
    7850     294.5852    239.30393   -3143.4644   -2705.2913    1061.6382    12020.545 
    7900    295.65935    239.27582   -3142.5274   -2702.7565     1027.925    12019.399 
    7950    291.73707    239.19486   -3139.8287   -2705.8919     1121.847    12018.621 
    8000    302.77578    239.54549   -3151.5164   -2701.1603    772.22898    12018.255 
    8050    303.93362    234.57046   -3152.3488   -2700.2705     913.6202    12018.132 
    8100    287.30866    233.94773    -3131.591   -2704.2411    1555.9776    12018.331 
    8150    293.82575    234.06949   -3135.6496   -2698.6061    1281.8383    12019.114 
    8200    293.76741    234.10111   -3136.7035   -2699.7468    1165.1835    12020.405 
    8250    303.11012    234.33863   -3144.6209   -2693.7675    930.25711    12022.126 
    8300    319.02866    234.88982    -3162.994   -2688.4631    486.85074    12024.118 
    8350    290.94678    233.94282   -3131.4274   -2698.6661    1319.3505    12026.255 
    8400    305.43394    234.42272   -3147.4241   -2693.1143    876.23717    12028.829 
    8450    307.66827    234.47547   -3149.1822    -2691.549    797.33678    12031.712 
    8500    290.74177    233.81755   -3127.2515   -2694.7952    1383.9241    12034.871 
    8550    293.81287     233.9321   -3131.0699   -2694.0455    1278.3338    12038.551 
    8600    308.18061    234.31602   -3143.8672   -2685.4719    824.19539    12042.713 
    8650     294.9731    233.85889   -3128.6295   -2689.8794    1211.1766    12047.179 
    8700    298.78032    233.93016   -3131.0052   -2686.5921    1089.3317     12052.08 
    8750    288.10595    233.54852   -3118.2841   -2689.7483    1351.5448    12057.427 
    8800    303.47519    234.00685   -3133.5615   -2682.1652     904.7269    12063.284 
    8850    316.59193    234.39832   -3146.6108   -2675.7043    405.13209    12069.447 
    8900     310.5559    234.17533   -3139.1776   -2677.2492    512.79743    12075.661 
    8950    300.84657    233.62634   -3120.8779   -2673.3915    855.20855    12081.995 
    9000    292.70336    233.24917   -3108.3058   -2672.9317    1109.2951    12088.624 
    9050    293.45603    233.27456   -3109.1521   -2672.6585    1053.8891    12095.669 
    9100    300.41926    233.51026   -3117.0085   -2670.1576    832.69928    12103.104 
    9150    299.16665    233.34996   -3111.6654   -2666.6777     950.4009    12110.842 
    9200    296.19538     233.2198   -3107.3268   -2666.7587    1044.4035    12118.931 
    9250    319.74563    233.97405   -3132.4683    -2656.871    295.52981    12127.386 
    9300    315.76856     233.8385     -3127.95   -2658.2682    388.48645    12135.876 
    9350     303.0751    233.24896   -3108.2986   -2657.4973    867.22483    12144.418 
    9400    307.10469    233.31518    -3110.506   -2653.7111    812.38694     12153.24 
    9450    302.03888    233.15973   -3105.3243   -2656.0643    833.62727     12162.34 
    9500    311.86022     233.5154   -3117.1798   -2653.3114    327.47396      12171.7 
    9550    315.16906    233.56682   -3118.8938   -2650.1038     167.5925    12181.085 
    9600    303.48407    233.12385   -3104.1282   -2652.7186    542.16951    12190.415 
    9650    310.09737    233.25205   -3108.4018   -2647.1554    304.83074    12199.843 
    9700    305.10319    233.07812    -3102.604   -2648.7862    271.08949    12209.295 
    9750    309.36798     233.1682   -3105.6067   -2645.4452   0.16424362    12218.712 
    9800    306.79656    233.08195   -3102.7316   -2646.3949   -64.746442    12227.971 
    9850    305.96396    233.05843   -3101.9477   -2646.8495   -165.96499    12237.021 
    9900    299.58459    232.78909   -3092.9697   -2647.3603    3.3451343    12245.831 
    9950    292.61994    232.48241   -3082.7471   -2647.4971    253.67361    12254.483 
   10000    300.25338     232.7036   -3090.1201   -2643.5159   -105.04576    12263.079 
   10050     297.6914    232.57882   -3085.9608   -2643.1674   -152.93625    12271.459 
   10100    292.89635    232.36668   -3078.8893   -2643.2282   -20.994735    12279.589 
   10150    291.23107    232.41184   -3080.3948   -2647.2107   -121.69583    12287.536 
   10200    296.93001    232.56797    -3085.599   -2643.9381   -468.93875    12295.234 
   10250    293.88568    232.43258   -3081.0859   -2643.9532   -446.88247    12302.516 
   10300    287.31291    232.11296   -3070.4319   -2643.0757    -232.8227    12309.389 
   10350    297.50424    232.42209   -3080.7365   -2638.2215   -565.32888    12315.925 
   10400    311.46502     232.9476   -3098.2532   -2634.9726   -1023.2981    12321.955 
   10450    311.05054    232.81113   -3093.7045   -2631.0404   -921.37205    12327.257 
   10500    309.64879    232.71104   -3090.3681    -2629.789   -897.69594    12331.851 
   10550    308.99063    232.64661   -3088.2202   -2628.6201    -889.6616    12335.745 
   10600    294.44011    232.07731   -3069.2436   -2631.2863   -327.19239    12338.974 
   10650    301.09795    232.30438   -3076.8125   -2628.9522   -460.70116    12341.797 
   10700    302.51231    232.36565   -3078.8548   -2628.8907    -501.1556    12344.171 
   10750     301.5985     232.3675   -3078.9165   -2630.3116   -538.57344    12346.056 
   10800    304.00355    232.51584   -3083.8615   -2631.6792   -727.30862    12347.432 
   10850    297.60923    232.25453   -3075.1511     -2632.48   -577.43245    12348.214 
   10900    290.07787    232.00161   -3066.7204   -2635.2516    -321.4882    12348.475 
   10950    289.74241    231.93284   -3064.4279    -2633.458   -343.32969    12348.343 
   11000    312.44662    232.72993   -3090.9975   -2626.2568   -1128.8016    12347.773 
   11050    308.46265    232.48776   -3082.9252   -2624.1104   -962.13698    12346.422 
   11100    300.33222    232.27408   -3075.8027   -2629.0813   -637.80456    12344.305 
   11150     283.2602    231.72084   -3057.3615   -2636.0334    17.164161    12341.631 
   11200    284.57275    231.71251   -3057.0836   -2633.8032    35.673489    12338.729 
   11250    298.19013    232.26833   -3075.6109   -2632.0757   -521.96253     12335.62 
   11300    299.49627    232.33215   -3077.7384   -2632.2604   -617.51837    12332.027 
   11350    307.37838    232.49715   -3083.2383   -2626.0362   -685.40782    12327.867 
   11400     305.1187    232.42676   -3080.8921   -2627.0511   -534.79407    12323.123 
   11450    315.27892    232.72421   -3090.8071   -2621.8536   -852.31131    12317.827 
   11500    307.08391    232.49962   -3083.3206   -2626.5566   -646.49638    12311.867 
   11550    309.11565    232.59429   -3086.4763   -2626.6902   -543.79176    12305.311 
   11600    322.22677    232.98437   -3099.4789    -2620.191    -685.9424    12298.189 
   11650    295.10933     232.1025   -3070.0834   -2631.1307    166.00652    12290.517 
   11700      309.554    232.60194   -3086.7314   -2626.2933   -222.81405    12282.624 
   11750    313.56045    232.73901   -3091.3002   -2624.9028   -303.63334    12274.401 
   11800    308.63333    232.65955   -3088.6517   -2629.5831   -82.041792    12265.787 
   11850    297.54085    232.26088   -3075.3626   -2632.7931    427.14053    12256.901 
   11900    303.86953    232.52234    -3084.078   -2632.0951    312.35073    12247.973 
   11950    300.70514    232.31407   -3077.1356   -2629.8595     505.7073    12239.029 
   12000    303.37111    232.44108   -3081.3693   -2630.1278    631.57992    12230.126 
   12050     305.1269    227.46034   -3082.0114   -2628.1582    711.67473    12221.339 
   12100    322.35652    228.10146    -3103.382   -2623.9011    118.87204    12212.655 
   12150     327.3742    228.30003   -3110.0011   -2623.0567   -63.155798    12203.793 
   12200     305.0147    227.55352   -3085.1174   -2631.4311    700.05434    12194.701 
   12250    321.28492     228.1618   -3105.3933   -2627.5064    366.29069    12185.669 
   12300    322.41757    228.20788   -3106.9293   -2627.3576    425.90109    12176.632 
   12350     313.9413    227.88675   -3096.2251   -2629.2612    829.14299    12167.573 
   12400    312.99634    227.85543   -3095.1808   -2629.6225    927.89323    12158.688 
   12450    317.44368     228.1285   -3104.2835     -2632.11    812.22387     12150.06 
   12500    317.93649    228.11259   -3103.7528   -2630.8464    893.50617    12141.641 
   12550     307.2103    227.84531   -3094.8436   -2637.8916    1232.7927    12133.476 
   12600     326.5508    228.58228   -3119.4094   -2633.6898     629.9689    12125.657 
   12650    327.59763    228.81128   -3127.0426    -2639.766    567.23506    12117.957 
   12700    312.06388    228.28775   -3109.5918   -2645.4204    1094.3266    12110.361 
   12750    310.88066     228.3566   -3111.8868   -2649.4754    1136.6505    12103.077 
   12800    311.48332    228.49861   -3116.6205   -2653.3127     1064.675    12096.169 
   12850    322.39068    228.94856   -3131.6188   -2652.0871    768.19691    12089.581 
   12900    319.21818    228.89699   -3129.8998    -2655.087    859.12158    12083.179 
   12950    309.97547     228.6006   -3120.0199   -2658.9548    1038.6485    12077.021 
   13000    309.42134    228.80805    -3126.935   -2666.6942    1008.8001    12071.158 
   13050    309.06518    233.94302   -3131.4339   -2671.7228    1051.2955    12065.598 
   13100    287.82787    233.27043   -3109.0144   -2680.8923    1690.6822    12060.433 
   13150    304.84836    233.80249   -3126.7496   -2673.3108    1134.4397    12055.901 
   13200    321.90148    234.43154   -3147.7181    -2668.914    543.62249    12051.761 
   13250    305.36365    233.95424   -3131.8079   -2677.6026    1018.0545    12047.743 
   13300    295.56819    233.79004   -3126.3348   -2686.6995    1310.4839    12044.035 
   13350    301.91611    233.99971   -3133.3238   -2684.2464    1116.4829    12040.806 
   13400    314.42987    234.48217   -3149.4056    -2681.715    741.36983    12037.957 
   13450    310.23886    234.33412   -3144.4706   -2683.0138     979.3988    12035.326 
   13500    301.22503     234.0786   -3135.9532   -2687.9038    1276.2558    12033.011 
   13550    292.41327    233.83377   -3127.7924   -2692.8498    1437.0936    12031.178 
   13600    304.62968    234.23601   -3141.2004   -2688.0869    973.49458    12029.871 
   13650    289.98826    233.69396   -3123.1319   -2691.7963    1365.1131    12028.926 
   13700    297.95594     234.0774   -3135.9134   -2692.7265    1100.3466    12028.463 
   13750    317.08212    234.65795    -3155.265   -2683.6294    512.07289    12028.355 
   13800    297.16314    234.09877   -3136.6258   -2694.6182    1098.2684     12028.38 
   13850    293.66059    233.93609    -3131.203   -2694.4051    1248.3449     12028.78 
   13900    301.06601    234.24718   -3141.5726   -2693.7598    1017.1321     12029.63 
   13950    294.79334    234.07708   -3135.9026   -2697.4199    1225.6444    12030.851 
   14000    293.12876    234.08194   -3136.0647   -2700.0579    1208.2463     12032.53 
   14050    310.91904     229.7349   -3157.8301   -2695.3616    545.50917     12034.62 
   14100    299.82869    229.31646   -3143.8819   -2697.9095    836.30254    12036.863 
   14150    301.45859    229.39508   -3146.5028   -2698.1059    702.48153    12039.316 
   14200    301.38703    229.36054   -3145.3512   -2697.0608    650.81886    12041.942 
   14250    300.34048     229.2333     -3141.11   -2694.3763     746.3778    12044.729 
   14300    303.79493    229.34277   -3144.7589    -2692.887    635.53673    12047.704 
   14350    284.59847    228.79064   -3126.3545   -2703.0359    1081.3398    12050.862 
   14400    297.58054    229.28164   -3142.7215    -2700.093    584.19675    12054.339 
   14450    295.14677    229.19538   -3139.8459   -2700.8374    617.94782    12057.962 
   14500    280.24885    228.75057   -3125.0192   -2708.1702      1045.22    12061.753 
   14550    295.94965     229.2977   -3143.2567    -2703.054    513.80843    12065.864 
   14600    304.47301    229.57623   -3152.5409   -2699.6604    174.87468    12070.079 
   14650    308.17006    229.59606   -3153.2021   -2694.8225    124.21573      12074.2 
   14700    299.72205    229.36048   -3145.3494   -2699.5355    364.91283    12078.208 
   14750    290.54039    229.07268   -3135.7559   -2703.5991    551.69918    12082.222 
   14800    294.24249    229.18341   -3139.4469   -2701.7835    349.55844     12086.31 
   14850     291.1543    229.12477   -3137.4923   -2704.4224    297.68627      12090.4 
   14900    292.83925    229.19944   -3139.9812    -2704.405    120.89776     12094.47 
   14950    297.60945     229.3584     -3145.28   -2702.6085   -45.082787     12098.42 
   15000    287.27229    228.99773   -3133.2575   -2705.9618    235.31423    12102.192 
   15050     300.8078    224.39954   -3146.6514   -2699.2226   -183.03913    12105.859 
   15100    303.61946    224.49101   -3149.7004   -2698.0894   -342.91453    12109.234 
   15150    302.00253    224.39218   -3146.4062   -2697.2003   -323.34991    12112.207 
   15200    299.89099    224.36048   -3145.3492   -2699.2841   -234.38024    12114.786 
   15250    284.08436     223.9233   -3130.7767   -2708.2227    192.50163    12117.048 
   15300    291.96271    224.13569   -3137.8565   -2703.5841   -86.678444    12119.155 
   15350     296.5879    224.29742   -3143.2473   -2702.0953   -235.39451    12121.014 
   15400    286.25239      224.019   -3133.9666   -2708.1879    28.262367    12122.547 
   15450    292.35443    224.19623   -3139.8743   -2705.0192   -135.72527    12123.857 
   15500    289.33757    224.12321   -3137.4402   -2707.0725   -43.785506    12124.888 
   15550    283.92911    223.99648    -3133.216    -2710.893    92.973857    12125.691 
   15600    296.65111    224.30623   -3143.5411    -2702.295   -268.42682      12126.3 
   15650    297.63516    224.37355    -3145.785   -2703.0753   -408.49024    12126.554 
   15700     305.0985    224.59363   -3153.1211   -2699.3102   -726.37376    12126.353 
   15750    289.69729    224.15378   -3138.4594   -2707.5567   -281.89672    12125.567 
   15800     287.1009    223.93476   -3131.1588   -2704.1179   -70.727962    12124.387 
   15850    295.78213     224.2196   -3140.6534   -2700.6999   -322.62187    12122.922 
   15900    292.45108    224.07934   -3135.9779   -2700.9791   -203.11523    12121.075 
   15950    314.96811    224.94346   -3164.7819   -2696.2907   -845.33496    12118.823 
   16000    289.15497    224.06429   -3135.4763   -2705.3802    14.484268    12115.965 
   16050    287.17688    223.96386   -3132.1288   -2704.9749    279.95891    12112.821 
   16100    291.91584    224.11621   -3137.2069   -2703.0043    242.31995    12109.584 
   16150    285.57881    223.84216   -3128.0721   -2703.2952    440.33756    12106.252 
   16200    293.57961    224.06703   -3135.5676   -2698.8902    163.73767    12102.885 
   16250    299.20038    224.24606   -3141.5355   -2696.4976    24.951294    12099.376 
   16300    296.35212     224.1102   -3137.0067   -2696.2054    202.08843    12095.653 
   16350    285.07322    223.81821   -3127.2738    -2703.249    568.76924    12091.815 
   16400    294.67998     224.1363   -3137.8766   -2699.5624    390.34018    12088.004 
   16450     295.1948    224.07799   -3135.9331   -2696.8532    400.34907    12084.189 
   16500    320.46831    224.91562   -3163.8539   -2687.1816   -326.95933    12080.281 
   16550    300.26116    224.16102   -3138.7005   -2692.0848    406.52131    12076.016 
   16600    300.17006    224.12162   -3137.3874   -2690.9072     528.1142    12071.678 
   16650    304.43697    224.23017   -3141.0058   -2688.1788    410.63445     12067.38 
   16700     316.6824    224.66835   -3155.6117   -2684.5707     148.0309    12063.032 
   16750    317.43315    224.60559   -3153.5197    -2681.362    326.58379    12058.516 
   16800    285.86545    223.57796   -3119.2654   -2694.0622    1339.4353    12053.965 
   16850    295.91583    224.00242   -3133.4141   -2693.2617    1034.0096    12049.807 
   16900     309.8526    224.40505   -3146.8349   -2685.9527    656.83324    12045.951 
   16950    296.29073    223.89902   -3129.9674   -2689.2573    1168.2086     12042.25 
   17000    303.00235    224.00084   -3133.3614   -2682.6683      1162.89    12038.891 
   17050    313.64511    224.25711   -3141.9036   -2675.3802    984.13512    12035.879 
   17100    316.09261    224.33616   -3144.5388    -2674.375    897.40155    12033.139 
   17150    317.44457    224.46341   -3148.7802   -2676.6055    767.99525     12030.61 
   17200    307.65751    224.12335   -3137.4449   -2679.8277    1196.3899    12028.261 
   17250    313.63361    224.28674   -3142.8913    -2676.385    1169.2904    12026.276 
   17300      314.184    224.21135   -3140.3783   -2673.0534    1191.2825    12024.675 
   17350     306.9827    224.01792   -3133.9306   -2677.3171    1349.0671    12023.477 
   17400     305.4022    224.02478   -3134.1593   -2679.8967    1404.0376    12022.747 
   17450    316.17504    224.37749   -3145.9164     -2675.63    1106.1932    12022.512 
   17500    318.18324    224.38009   -3146.0031   -2672.7296    993.42049    12022.646 
   17550    324.07325    224.51565   -3150.5217   -2668.4873    792.87952    12023.056 
   17600    331.65404    224.75495   -3158.4983   -2665.1881    531.81062    12023.653 
   17650    320.58968    224.38819   -3146.2731   -2669.4203    885.59967    12024.327 
   17700    311.18381     224.1523     -3138.41   -2675.5476    1331.4342    12025.242 
   17750     309.1496    224.09357   -3136.4522   -2676.6156    1426.3654    12026.647 
   17800    311.50908    224.15555   -3138.5184   -2675.1722    1289.8698    12028.571 
   17850    299.74112     223.8121   -3127.0698   -2681.2276    1573.4423    12030.991 
   17900    304.68486    223.94702   -3131.5672   -2678.3716    1336.5773    12034.014 
   17950    309.50696    223.99997   -3133.3324   -2672.9643    1151.6865    12037.549 
   18000    314.14023    224.19854   -3139.9513   -2672.6915    914.75378    12041.484 
   18050    313.83044    229.21581   -3140.5271   -2673.7281    857.39409    12045.709 
   18100    299.98257    228.75893   -3125.2977   -2679.0964    1190.4595    12050.249 
   18150    314.26748    229.21453   -3140.4843   -2673.0352    671.57303    12055.201 
   18200    331.37284    229.79881   -3159.9602   -2667.0683    127.80003     12060.32 
   18250    302.89852    228.88535   -3129.5117   -2678.9731    1009.3446    12065.415 
   18300     305.3579     229.0259   -3134.1965   -2679.9998     879.6012    12070.808 
   18350    296.93749    228.77072   -3125.6907   -2684.0187    991.29819    12076.547 
   18400    290.78978    228.58267   -3119.4222   -2686.8944    1051.6636    12082.654 
   18450    291.63166    228.60914   -3120.3045   -2686.5245    883.06674    12089.165 
   18500    308.34213    229.26784   -3142.2615   -2683.6259    269.19576    12095.978 
   18550    302.54148    229.13124   -3137.7081   -2687.7005    325.45762    12102.842 
   18600    304.31577    229.16096   -3138.6986   -2686.0519    95.904774    12109.708 
   18650    307.02994     229.3165   -3143.8834   -2687.1996   -147.51349    12116.476 
   18700    301.47826    229.12251   -3137.4171    -2688.991    -75.44355    12123.039 
   18750    296.46578    228.90981    -3130.327   -2689.3566   -19.879558    12129.408 
   18800    282.85844    228.53138   -3117.7126   -2696.9821    342.14655    12135.636 
   18850    282.31154    228.54458   -3118.1525   -2698.2355    259.07679    12141.876 
   18900    294.40344    228.97491   -3132.4969   -2694.5941   -271.86071    12148.092 
   18950    297.85399    229.11193   -3137.0642    -2694.029   -472.84784    12154.024 
   19000    287.73252    228.79015   -3126.3385   -2698.3582   -214.96074    12159.582 
   19050    286.95985    228.77739   -3125.9129   -2699.0819   -216.12771    12164.849 
   19100    276.69501    228.55722   -3118.5741   -2707.0112   -45.378205    12169.854 
   19150    279.94705    228.79276   -3126.4255   -2710.0254   -333.94323    12174.656 
   19200    289.70939    229.11726    -3137.242   -2706.3212    -808.4182    12179.105 
   19250     289.2858    229.09302    -3136.434   -2706.1433   -885.76472    12182.971 
   19300    281.28741    228.84366   -3128.1219   -2709.7282   -657.87989    12186.207 
   19350     297.3151    229.41488   -3147.1628   -2704.9291   -1178.6267    12188.851 
   19400    281.16542    228.93197   -3131.0655   -2712.8533   -724.73166    12190.718 
   19450    272.16931    228.61471   -3120.4904   -2715.6592   -411.46652    12191.981 
   19500    285.67307    229.05116   -3135.0386   -2710.1215   -884.37929    12192.797 
   19550    284.00367    229.09916   -3136.6385   -2714.2046   -916.58766    12192.961 
   19600    273.07299    228.67141   -3122.3804    -2716.205    -585.6805    12192.434 
   19650    270.57847    228.59334    -3119.778    -2717.313   -616.04152    12191.371 
   19700    276.29955    228.78671   -3126.2237    -2715.249   -871.56449    12189.747 
   19750    279.84334    228.98967   -3132.9889   -2716.7432   -983.83507    12187.433 
   19800    283.29385    229.07657   -3135.8856   -2714.5075   -958.30132    12184.358 
   19850      282.565    229.09347   -3136.4491    -2716.155   -849.89398    12180.532 
   19900    284.41314    229.17225   -3139.0748   -2716.0318   -803.13418    12175.986 
   19950    269.85835    228.59463    -3119.821   -2718.4272   -296.14231    12170.785 
   20000      295.092    229.41186    -3147.062    -2708.135   -920.28022    12165.086 
   20050    273.42966    223.78025   -3126.0083   -2719.3024   -182.40485    12158.706 
   20100    276.81257    223.86844   -3128.9481   -2717.2104   -145.70838    12151.908 
   20150    301.02138     224.6526   -3155.0867   -2707.3402   -850.67193     12144.71 
   20200    293.88391    224.44966   -3148.3219   -2711.1918   -684.16814      12136.8 
   20250    295.14531     224.4909   -3149.6966   -2710.6903   -550.64424    12128.201 
   20300    288.16245    224.15632    -3138.544   -2709.9242   -67.970628    12119.023 
   20350    298.62132    224.59041   -3153.0137   -2708.8371   -238.57711    12109.462 
   20400    303.14066    224.71533   -3157.1777   -2706.2789   -303.83451    12099.468 
   20450    293.34568    224.47598   -3149.1992   -2712.8698    28.890511    12089.014 
   20500    289.55833    224.29341   -3143.1135   -2712.4174    326.36294    12078.255 
   20550    284.82997    224.00908    -3133.636    -2709.973    690.06537    12067.358 
   20600    309.51679    224.82196   -3160.7321   -2700.3494    169.87496    12056.445 
   20650    307.95455    224.67215   -3155.7382   -2697.6791    384.93712    12045.328 
   20700    294.02627    224.29092   -3143.0305   -2705.6887    875.31287    12034.097 
   20750    282.99079    223.84259   -3128.0863    -2707.159    1461.0117    12023.025 
   20800    292.33187    224.10902   -3136.9674   -2702.1459    1350.7831     12012.38 
   20850    314.98296    224.82698   -3160.8994   -2692.3861    692.46238    12002.104 
   20900    304.39955    224.48834   -3149.6113   -2696.8401    1147.0022    11991.929 
   20950    292.47211     224.0225   -3134.0835   -2699.0534    1732.1087    11982.047 
   21000    306.38194    224.40519   -3146.8396   -2691.1197     1480.297    11972.734 
   21050    306.80271    219.52496   -3150.8321   -2694.4863    1550.0023      11963.9 
   21100    315.19906    219.75695    -3158.565   -2689.7303    1526.0813    11955.542 
   21150    305.28488    219.45171   -3148.3902   -2694.3021    1833.5682    11947.695 
   21200    315.68645    219.78111   -3159.3702   -2689.8105    1631.7655    11940.448 
   21250    304.39035     219.3609   -3145.3633   -2692.6057    1976.5525    11933.789 
   21300    335.40162     220.2905   -3176.3501   -2677.4656    1202.4476    11927.788 
   21350    321.96924    219.85506   -3161.8354   -2682.9305    1712.7749    11922.178 
   21400    334.01733    220.13237   -3171.0789   -2674.2534    1514.5317    11917.093 
   21450    318.25043    219.67085   -3155.6951   -2682.3217     2007.663    11912.558 
   21500    315.95652     219.5986   -3153.2866   -2683.3252    2229.8181    11908.764 
   21550    313.19011    219.54977    -3151.659   -2685.8125    2415.2274    11905.848 
   21600    320.86376    219.77837   -3159.2791   -2682.0185    2188.2695    11903.881 
   21650    324.87825    220.04549   -3168.1829   -2684.9511     1897.588    11902.805 
   21700    331.99645    220.26573   -3175.5242   -2681.7046    1709.8169    11902.455 
   21750    325.79527    219.99605    -3166.535   -2681.9393    1956.0141    11902.773 
   21800    321.75438    219.84128    -3161.376   -2682.7907    2081.1241    11903.854 
   21850    315.89669    219.62668   -3154.2225   -2684.3502    2242.9628    11905.777 
   21900    324.28654    220.01105    -3167.035   -2684.6833    1877.6299    11908.617 
   21950     335.3069     220.4273   -3180.9099   -2682.1663    1458.4665    11912.193 
   22000    319.82226    219.90889   -3163.6296   -2687.9182    1886.7353    11916.357 
   22050    320.34381    225.02504   -3167.5014   -2691.0143    1812.0703    11921.262 
   22100    315.07899    224.84218    -3161.406   -2692.7499    1866.2573    11926.959 
   22150    317.80182     224.8686   -3162.2865   -2689.5804    1697.3238    11933.448 
   22200    314.70314    224.75976   -3158.6587   -2690.5616    1612.6639     11940.65 
   22250    314.68402    224.82001   -3160.6671   -2692.5984    1381.2026    11948.537 
   22300    308.92371    224.63191   -3154.3971   -2694.8965    1496.2906    11957.018 
   22350    292.82534     224.1642   -3138.8067   -2703.2512    1892.9404    11966.159 
   22400    291.82656    224.18815   -3139.6051   -2705.5352     1702.229    11976.163 
   22450    305.34225    224.62792   -3154.2639   -2700.0904    995.35669    11986.919 
   22500    298.96978    224.39613   -3146.5377   -2701.8428    1057.1272    11998.114 
   22550    300.77854    224.51825   -3150.6084   -2703.2231    878.50451     12009.74 
   22600    305.02272    224.65497   -3155.1657   -2701.4675    610.52695     12021.74 
   22650    308.68337    224.73848   -3157.9493   -2698.8062    391.13759     12033.96 
   22700    302.39151    224.49226   -3149.7419   -2699.9575    436.26391    12046.288 
   22750     300.6393    224.42048   -3147.3492    -2700.171    343.45166    12058.731 
   22800    314.55905    224.96845   -3165.6151   -2697.7324   -260.80528    12071.215 
   22850    296.06222    224.27521   -3142.5071    -2702.137    156.34444    12083.523 
   22900    301.99404    224.51931   -3150.6437   -2701.4505   -206.86507    12095.748 
   22950    291.64961    224.22231   -3140.7436   -2706.9369   -49.520233     12107.79 
   23000    286.50266    223.97969   -3132.6563   -2706.5053    52.571659    12119.686 
   23050      293.929     224.1691   -3138.9699   -2701.7727   -313.35159    12131.459 
   23100    287.24361    223.90182   -3130.0606   -2702.8075   -178.51674    12142.972 
   23150    278.08207    223.54773   -3118.2577   -2704.6317    30.747015    12154.292 
   23200    296.45686    224.12154   -3137.3846   -2696.4275   -585.00752    12165.444 
   23250    282.98893    223.61409   -3120.4695    -2699.545   -338.33553     12176.22 
   23300    295.06251     224.0961   -3136.5368   -2697.6537   -794.97516    12186.633 
   23350     283.7375    223.74261   -3124.7537   -2702.7157   -600.20109    12196.516 
   23400    271.55711    223.39565   -3113.1884   -2709.2678   -402.15686    12205.936 
   23450    279.48888    223.55997   -3118.6658   -2702.9472    -676.8368    12214.975 
   23500    293.92017    223.98731   -3132.9103   -2695.7263   -1097.3761    12223.479 
   23550    287.83317    223.78172   -3126.0572   -2697.9272   -966.11864    12231.257 
   23600    286.65357    223.72681   -3124.2269   -2697.8515   -1042.5924    12238.328 
   23650    293.63979     224.0245   -3134.1501   -2697.3832   -1258.6831    12244.639 
   23700    285.33452    223.74915   -3124.9716   -2700.5581   -976.27724    12250.118 
   23750    283.52878    223.68158   -3122.7194   -2700.9918   -940.54364    12254.849 
   23800    281.41313     223.5155   -3117.1832   -2698.6025   -893.42359    12258.878 
   23850    281.62066    223.35307    -3111.769   -2692.8796   -947.09799     12262.23 
   23900    299.57119    223.92376   -3130.7919   -2685.2025   -1489.3449    12264.822 
   23950    289.05349     223.5543   -3118.4765   -2688.5314   -1120.6153    12266.439 
   24000    284.31854    223.37854    -3112.618   -2689.7157   -911.97153    12267.207 
   24050    290.70551    223.43619   -3114.5397   -2682.1373   -1025.7386    12267.229 
   24100    282.98472    223.16297   -3105.4323    -2684.514   -784.05059    12266.498 
   24150    298.06721    223.57799   -3119.2662   -2675.9138   -1157.8263    12265.063 
   24200    296.87446    223.50337   -3116.7789   -2675.2006   -1033.5751    12262.776 
   24250    298.34569    223.59286    -3119.762   -2675.9954   -959.61467    12259.662 
   24300    285.55436    223.22511   -3107.5036   -2682.7632   -549.03539    12255.792 
   24350    274.41212    222.76295   -3092.0983    -2683.931   -119.54145    12251.368 
   24400    281.04991    222.98296    -3099.432   -2681.3916   -337.32203    12246.591 
   24450    307.98754     223.7331   -3124.4367   -2666.3286   -1121.6117     12241.33 
   24500    305.72953    223.64484   -3121.4945    -2666.745   -796.05089    12235.238 
   24550    298.74776    223.32692   -3110.8972   -2666.5326   -281.01873    12228.447 
   24600    298.26526    223.33264    -3111.088    -2667.441   -252.10172    12221.189 
   24650    298.00315     223.3157   -3110.5233   -2667.2662   -236.89193    12213.512 
   24700    303.33637    223.42663   -3114.2212   -2663.0313   -282.52603     12205.42 
   24750    292.12805    223.06828    -3102.276   -2667.7577     162.2705    12196.916 
   24800    300.60648    223.37568   -3112.5225   -2665.3932   -21.557853    12188.196 
   24850    312.90204    223.76038   -3125.3459   -2659.9279   -260.53698    12179.178 
   24900    308.33416    223.55538   -3118.5128   -2659.8891    148.91501    12169.747 
   24950    305.23158    223.44783   -3114.9275   -2660.9187    415.36702    12160.109 
   25000    323.01412    224.03318   -3134.4393   -2653.9803   -31.129609    12150.379 
   25050    325.80314    229.07478   -3135.8261   -2651.2186   -7.0994274     12140.36 
   25100    308.19968    228.50541   -3116.8469   -2658.4232    608.50167    12130.073 
   25150    306.69104    228.53603   -3117.8677    -2661.688    739.62174     12119.81 
   25200    309.76418    228.61751   -3120.5837   -2659.8329    701.98566    12109.661 
   25250    307.82598    228.59374   -3119.7912   -2661.9234    874.79077    12099.615 
   25300    302.43745     228.3544   -3111.8134   -2661.9606    1162.1581    12089.775 
   25350    315.77313    228.74463   -3124.8211   -2655.1325    836.47985    12080.261 
   25400    319.74288    228.84745   -3128.2482   -2652.6549    870.61119    12070.958 
   25450    321.41172     228.8636   -3128.7867   -2650.7112    1073.8201    12061.849 
   25500    319.02783    228.73271   -3124.4238   -2649.8941    1363.2376    12053.041 
   25550    307.72568    228.42673   -3114.2244   -2656.5058    1773.4438    12044.709 
   25600    319.67782    228.88227    -3129.409   -2653.9125    1525.2255    12037.011 
   25650      307.502    228.45267    -3115.089   -2657.7031    1898.8229    12029.925 
   25700    324.16058    229.12925   -3137.6416   -2655.4773    1361.7542     12023.54 
   25750    320.01941    229.05602   -3135.2008   -2659.1962    1505.8753    12017.658 
   25800    319.07614    229.00351   -3133.4503   -2658.8487    1590.4922    12012.326 
   25850    336.82638    229.58286   -3152.7619   -2651.7581    1105.1805    12007.559 
   25900    319.43435    229.02466   -3134.1554    -2659.021    1628.9769    12003.187 
   25950    316.90616    228.98508    -3132.836   -2661.4621    1721.8694    11999.389 
   26000     315.9545    229.02885   -3134.2951   -2664.3367    1706.1456    11996.273 
   26050    324.08944    224.31031   -3143.6769   -2661.6184     1506.517    11993.801 
   26100    310.03475    223.82267   -3127.4225   -2666.2693    1945.8472     11991.92 
   26150    321.43253    224.29742   -3143.2472   -2665.1407    1571.7488    11990.763 
   26200    312.94278    224.00884    -3133.628   -2668.1493    1768.4283    11990.236 
   26250    318.82686      224.286   -3142.8667    -2668.636    1545.2322    11990.369 
   26300    305.78458    223.89426   -3129.8088   -2674.9774    1856.5728    11991.112 
   26350    309.60005    224.15042   -3138.3472   -2677.8406    1644.0698    11992.592 
   26400    322.94423    224.56564   -3152.1879   -2671.8328    1200.5517    11994.702 
   26450    323.04204    224.60488   -3153.4961   -2672.9955    1169.6674    11997.236 
   26500    306.19041    224.08186    -3136.062   -2680.6269    1523.7765    12000.206 
   26550    325.60886    224.80503   -3160.1675    -2675.849    831.37011    12003.687 
   26600    309.46534    224.39235   -3146.4117   -2686.1055    1261.3364    12007.462 
   26650    292.48392    223.90919   -3130.3062   -2695.2586    1582.6005    12011.689 
   26700    307.39786    224.42606   -3147.5352   -2690.3042    1001.1594    12016.492 
   26750    304.09916    224.35706   -3145.2354   -2692.9109    1037.5954    12021.664 
   26800    305.08459    224.37229   -3145.7429   -2691.9527    903.53509    12027.186 
   26850    297.85642    224.16986   -3138.9952   -2695.9564    943.49949    12033.011 
   26900    312.41126    224.63198   -3154.3994   -2689.7113    453.10324    12039.099 
   26950     308.4182    224.51682   -3150.5607    -2691.812    507.80342    12045.266 
   27000    301.01076    224.29766   -3143.2554   -2695.5247    656.50119    12051.512 
   27050    299.33843    219.24426   -3141.4752    -2696.232    619.67498    12057.905 
   27100    292.20324    219.02107   -3134.0355   -2699.4054    682.16912     12064.45 
   27150    306.39505    219.41946   -3147.3154    -2691.576     239.5085    12071.117 
   27200    294.14815    219.10423   -3136.8078   -2699.2847    548.25202     12077.75 
   27250    297.57579    219.20738   -3140.2461   -2697.6247    396.15254    12084.443 
   27300    296.20127     219.2501   -3141.6701   -2701.0931    199.00732    12091.154 
   27350    305.46911    219.51546   -3150.5153   -2696.1532   -216.58728    12097.763 
   27400    291.97956    219.12829   -3137.6096   -2703.3122    57.844212    12104.084 
   27450    288.84836    218.97106   -3132.3686   -2702.7285    104.29109    12110.219 
   27500    288.84668    218.99981    -3133.327   -2703.6895    22.189463    12116.204 
   27550    287.58725    219.03302   -3134.4339   -2706.6696   -19.492884    12121.999 
   27600    301.64486    219.44847   -3148.2824   -2699.6085   -546.89093    12127.561 
   27650    298.00542    219.36889   -3145.6296   -2702.3692   -579.42561     12132.65 
   27700    300.83207    219.40935   -3146.9785   -2699.5136   -654.73288    12137.204 
   27750    302.63206    219.44403   -3148.1343    -2697.992   -729.09571     12141.18 
   27800    305.97689    219.54169   -3151.3896   -2696.2721   -837.50768     12144.53 
   27850    304.42416    219.50806   -3150.2688   -2697.4609   -776.23925    12147.216 
   27900    286.27061    218.94554   -3131.5181   -2705.7123   -295.59352    12149.283 
   27950     294.3303    219.32306    -3144.102    -2706.308   -592.37826    12150.913 
   28000    285.76146    218.90884   -3130.2948   -2705.2463   -268.21038    12152.032 
   28050    287.91699     219.0553   -3135.1766   -2706.9219   -372.58945    12152.749 
   28100    298.17073    219.45209   -3148.4029   -2704.8965   -768.08395    12153.028 
   28150    295.37828    219.26165    -3142.055   -2702.7022   -597.52063    12152.681 
   28200    303.65368    219.56625   -3152.2083   -2700.5465   -726.56959    12151.745 
   28250     295.9295    219.31755   -3143.9184   -2703.7457   -512.08604      12150.2 
   28300    299.91519     219.3955   -3146.5165   -2700.4154   -627.72953    12148.104 
   28350    296.13334     219.2835   -3142.7834   -2702.3075   -564.68633    12145.425 
   28400    286.52128    218.93751   -3131.2503   -2705.0716   -219.34539    12142.184 
   28450    281.02266    218.84569   -3128.1896   -2710.1897   -29.620115    12138.566 
   28500    293.82603    219.30423   -3143.4743   -2706.4303   -381.04184    12134.657 
   28550    296.48541    219.32451   -3144.1505   -2703.1509   -389.26633    12130.312 
   28600    292.52728    219.17559   -3139.1863   -2704.0742   -177.74408     12125.51 
   28650    295.44818    219.23737   -3141.2457   -2701.7889   -169.82166    12120.352 
   28700    305.16884    219.60376   -3153.4585    -2699.543   -352.05753    12114.817 
   28750    290.46956    219.17278   -3139.0928   -2707.0414    153.06766    12108.863 
   28800    305.99581    219.50581   -3150.1936    -2695.048   -232.57444    12102.678 
   28850    291.43063    219.01107   -3133.7024   -2700.2214    191.77498    12096.151 
   28900    293.27927    219.14069   -3138.0231   -2701.7924    238.85294    12089.425 
   28950    307.18272     219.6112   -3153.7065   -2696.7955   -40.749911    12082.543 
   29000    303.51102    219.53991   -3151.3304   -2699.8808    224.00232    12075.389 
   29050    298.53154    219.27907   -3142.6358   -2698.5927    457.02365    12068.092 
   29100    313.24328     219.7399   -3157.9965   -2692.0709    68.828663     12060.73 
   29150    310.92569    219.66188   -3155.3961   -2692.9177    311.90439    12053.153 
   29200    295.03286    219.13676    -3137.892   -2699.0529    913.37661    12045.497 
   29250    311.15891    219.67167   -3155.7224   -2692.8971     572.2876    12037.988 
   29300    302.69207     219.3409   -3144.6965    -2694.465    915.92822    12030.564 
   29350    308.18116    219.52874    -3150.958   -2692.5619    810.18188    12023.325 
   29400    311.51944    219.72231   -3157.4104   -2694.0489    684.34865    12016.236 
   29450    303.84213    219.46645   -3148.8815   -2696.9394    1040.6508     12009.26 
   29500    297.48794    219.19787   -3139.9291   -2697.4384    1357.5393    12002.575 
   29550    313.73823    219.65428   -3155.1428    -2688.481    829.49542    11996.307 
   29600    325.95307    220.06941   -3168.9805     -2684.15    536.98037    11990.207 
   29650    316.20043    219.77355   -3159.1184   -2688.7942    996.04324    11984.132 
   29700     301.6147    219.29757   -3143.2524   -2694.6234    1495.8796    11978.325 
   29750    304.81046    219.37856    -3145.952   -2692.5695     1473.378    11973.017 
   29800    314.29401    219.75281   -3158.4269   -2690.9384    1307.3028    11968.208 
   29850    315.89294    219.75329   -3158.4431   -2688.5763    1332.1534     11963.84 
   29900    312.98856    219.67272   -3155.7573   -2690.2106    1343.3101    11959.898 
   29950    298.29744    219.20935   -3140.3117   -2696.6169    1743.0963    11956.418 
   30000    312.61566    219.65787   -3155.2623   -2690.2702    1394.5148    11953.558 
   30050    324.12455    219.99858   -3166.6192   -2684.5085    1111.2331    11951.186 
   30100    315.43239    219.70314   -3156.7713   -2687.5895    1459.1613    11949.169 
   30150    308.73364     219.6379   -3154.5967   -2695.3788    1599.9037    11947.643 
   30200    323.60804    220.07304   -3169.1014    -2687.759    1156.1857    11946.652 
   30250    314.68489    219.83757   -3161.2525   -2693.1826    1463.0195    11946.054 
   30300    296.81175    219.31684   -3143.8948   -2702.4098    1931.9213    11946.002 
   30350     322.3705    220.17992    -3172.664   -2693.1623    1152.2613    11946.621 
   30400    297.24228    219.37474   -3145.8248   -2703.6995    1834.2951    11947.694 
   30450    309.36948    219.90041   -3163.3469   -2703.1833    1416.7033    11949.418 
   30500    312.77697    219.99253   -3166.4177   -2701.1857    1293.1128    11951.664 
   30550    286.25421     219.1443   -3138.1432   -2712.3618    1863.9147    11954.422 
   30600    322.90589    220.30772   -3176.9241    -2696.626    640.63558    11957.817 
   30650      308.399    219.89106   -3163.0353   -2704.3151    951.60692    11961.411 
   30700    307.66021    219.96329    -3165.443   -2707.8218    1004.7374    11965.247 
   30750    306.27411    220.01731   -3167.2436    -2711.684    1024.9824    11969.393 
   30800    309.22527    220.08485   -3169.4951    -2709.546    842.51839    11973.855 
   30850    323.23323    220.57508    -3185.836   -2705.0511     294.6521    11978.498 
   30900    291.95613    219.59441   -3153.1471   -2718.8844    1070.0063    11983.156 
   30950    300.64761    219.93852   -3164.6173   -2717.4267    698.83958    11988.096 
   31000    289.55376    219.62233   -3154.0777   -2723.3884    862.47212    11993.232 
   31050    289.20462      224.705   -3156.8334   -2726.6634    733.53143    11998.609 
   31100    295.79845    225.00874    -3166.958   -2726.9802    401.09702    12004.172 
   31150    281.09536    224.52123   -3150.7078   -2732.5997    781.67337    12009.797 
   31200    288.74442    224.76353   -3158.7844    -2729.299    526.12419    12015.617 
   31250    293.61669    225.01986   -3167.3287   -2730.5962    193.79937    12021.534 
   31300    295.27113    225.07879   -3169.2929   -2730.0994     87.40285    12027.363 
   31350     286.1005    224.70452   -3156.8173   -2731.2645    294.78228    12033.073 
   31400    300.27282     225.2737   -3175.7899   -2729.1568   -328.39798    12038.693 
   31450    279.90149     224.6683     -3155.61   -2739.2778    145.82715    12044.013 
   31500    280.36663    224.55059   -3151.6862   -2734.6621    109.74165    12049.183 
   31550    284.25788    224.76039   -3158.6796   -2735.8675   -99.050496    12054.214 
   31600    284.53173    224.84593   -3161.5311   -2738.3117   -143.87105    12059.011 
   31650    278.10598    224.67659   -3155.8864   -2742.2249    21.901961    12063.553 
   31700    280.69462     224.7144   -3157.1466   -2739.6347   -130.68513      12067.9 
   31750    282.20429    224.71241   -3157.0805    -2737.323   -244.02856    12071.983 
   31800    264.86125    224.06665    -3135.555   -2741.5939    213.92735    12075.769 
   31850     283.3773    224.69604   -3156.5348   -2735.0325    -365.9994    12079.415 
   31900      285.626    224.80268   -3160.0893   -2735.2423   -479.52422    12082.703 
   31950    269.78153     224.2558   -3141.8599   -2740.5803    -47.89053    12085.573 
   32000    286.57512    224.77951   -3159.3171   -2733.0584   -495.64517    12088.156 
   32050    281.92082    224.71822   -3157.2739   -2737.9381   -372.90893     12090.31 
   32100    285.45493    224.79833   -3159.9442   -2735.3517   -447.44084    12092.051 
   32150    280.60034    224.55255   -3151.7515   -2734.3798   -271.08106    12093.362 
   32200    277.51912    224.40775    -3146.925   -2734.1364   -113.41612    12094.309 
   32250    262.78641    223.91547   -3130.5157   -2739.6408    371.28304    12095.036 
   32300    283.90877    224.65351   -3155.1171   -2732.8243   -348.21697    12095.681 
   32350    288.50947    224.79332   -3159.7775   -2730.6415   -525.60662    12095.959 
   32400    286.62843    224.68785   -3156.2616   -2729.9236   -386.59966    12095.751 
   32450    286.71459    224.55628   -3151.8759   -2725.4097   -349.42358    12095.126 
   32500    296.40831    224.81517   -3160.5056   -2719.6207   -632.41044    12094.069 
   32550    286.15781    224.36864   -3145.6212   -2719.9832   -212.51484    12092.475 
   32600     285.4342    224.37467   -3145.8225   -2721.2607   -114.97898    12090.521 
   32650    281.62462    224.30795   -3143.5984   -2724.7031    13.467874    12088.303 
   32700    293.58587    224.67535   -3155.8449   -2719.1582   -218.45147    12085.839 
   32750    289.48739    224.52623   -3150.8742   -2720.2837    45.742768    12083.057 
   32800    278.20066    224.01176   -3133.7255   -2719.9231    484.00989    12080.087 
   32850    290.87895    224.45378   -3148.4593   -2715.7989   -1.1766418    12077.094 
   32900    304.96561    224.94303   -3164.7678   -2711.1545   -454.83409    12073.863 
   32950    293.21845    224.47694   -3149.2315   -2713.0912    55.601829    12070.195 
   33000    292.61108    224.40895    -3146.965   -2711.7282    307.35494    12066.294 
   33050    291.88018    224.36497   -3145.4989   -2711.3493    384.99235    12062.333 
   33100    297.90721    224.61434   -3153.8112   -2710.6968    173.10233     12058.31 
   33150    293.20403    224.46838   -3148.9461   -2712.8273    380.74693    12054.153 
   33200    305.48113    224.85895   -3161.9651    -2707.585    165.19943    12049.943 
   33250    299.40401    224.55155   -3151.7183   -2706.3775    457.84061     12045.62 
   33300    311.02851    224.92896   -3164.2986   -2701.6672    153.04185    12041.249 
   33350    295.13469    224.33448   -3144.4826   -2705.4921    646.07648    12036.771 
   33400    298.03582     224.4875   -3149.5834   -2706.2777    695.63287    12032.354 
   33450    297.75894    224.36169   -3145.3895   -2702.4957    900.99371    12028.078 
   33500    297.01775    224.33577   -3144.5255   -2702.7341    971.33501    12024.027 
   33550    299.95733     224.4489   -3148.2968    -2702.133    934.69555     12020.25 
   33600    307.17963    224.63142   -3154.3807   -2697.4743      772.937    12016.721 
   33650    304.32881    224.49924   -3149.9747   -2697.3087    942.36853    12013.367 
   33700    304.98126    224.52922   -3150.9739   -2697.3374    1001.1096    12010.263 
   33750     311.0447    224.79303   -3159.7676   -2697.1122    776.52599    12007.421 
   33800    318.63848    224.97705   -3165.9015   -2691.9509    594.11864    12004.734 
   33850    300.22493    224.39299   -3146.4331   -2699.8713      1203.22    12002.162 
   33900    286.32978    223.96555   -3132.1849   -2706.2911     1622.275    11999.971 
   33950    304.90133    224.58036   -3152.6787    -2699.161    1124.9586    11998.361 
   34000    307.03119    224.55676   -3151.8919   -2695.2063     1142.194    11997.137 
   34050    315.18584      219.829   -3160.9666   -2692.1516    874.78398    11996.248 
   34100    314.50123    219.85407   -3161.8025   -2694.0057    915.33001    11995.605 
   34150     306.7794    219.56087    -3152.029   -2695.7179    1162.1307    11995.215 
   34200    320.22178    220.02836    -3167.612   -2691.3063    691.26744     11995.14 
   34250     321.9352    220.06822   -3168.9406   -2690.0864    709.37484    11995.209 
   34300    297.38691    219.38301   -3146.1004     -2703.76    1474.3001    11995.453 
   34350    313.99166    219.89291    -3163.097   -2696.0582    951.22976    11996.171 
   34400    310.61143    219.80696    -3160.232    -2698.221    937.15219    11997.193 
   34450    313.75521    219.80605   -3160.2018   -2693.5147    836.83482    11998.458 
   34500    311.45721    219.77138    -3159.046    -2695.777    882.43474    11999.933 
   34550    293.44265    219.20889   -3140.2963   -2703.8226    1385.8229    12001.679 
   34600    316.30052    219.94924   -3164.9748   -2694.5018     641.7124    12003.874 
   34650    327.12251    220.31627   -3177.2091   -2690.6391    278.91105     12006.18 
   34700     305.2722    219.64105   -3154.7018   -2700.6325    926.32574    12008.454 
   34750    316.40895     219.9637   -3165.4568   -2694.8225     666.3564    12010.934 
   34800    300.90249    219.48827    -3149.609   -2702.0393    1092.7872    12013.578 
   34850    297.11046     219.4001   -3146.6699   -2704.7407    1155.7305    12016.544 
   34900    302.94955    219.59049   -3153.0162   -2702.4017    820.82779    12019.877 
   34950    299.46883    219.50466   -3150.1554   -2704.7182     803.8401    12023.432 
   35000    297.38839    219.61007   -3153.6689   -2711.3262    726.14952    12027.185 
   35050    304.06081    214.83407   -3161.1356   -2708.8682    448.72651    12031.091 
   35100    316.29221    215.24104   -3174.7014   -2704.2407   -18.855018    12034.984 
   35150    306.52702    214.86411   -3162.1371   -2706.2014    245.31103    12038.666 
   35200    304.55475    214.78829   -3159.6095   -2706.6074    191.66731    12042.223 
   35250    304.46997    214.81687   -3160.5622   -2707.6862    4.6797022    12045.644 
   35300    302.65858    214.74758   -3158.2526   -2708.0709    99.783471    12048.833 
   35350    295.48496    214.54295   -3151.4317   -2711.9202    251.38029    12051.848 
   35400    306.22297     214.8625   -3162.0832   -2706.5997   -161.88642    12054.725 
   35450    305.00599    214.87215   -3162.4049   -2708.7316   -187.45246    12057.302 
   35500    300.42846    214.67675   -3155.8916   -2709.0271   -11.440331    12059.535 
   35550    306.47793     214.9591   -3165.3034   -2709.4407    -251.6167    12061.484 
   35600     300.8451    214.81402   -3160.4673    -2712.983   -216.34329    12063.063 
   35650    298.10424    214.73358   -3157.7859   -2714.3784   -189.47383    12064.259 
   35700    304.40306    214.90598   -3163.5328   -2710.7563   -349.74595    12065.103 
   35750    294.12575    214.67988   -3155.9959   -2718.5062   -22.486429    12065.526 
   35800     280.0079    214.30124   -3143.3747   -2726.8842    352.94119    12065.686 
   35850    287.68314     214.5352   -3151.1734   -2723.2665    20.811695    12065.778 
   35900    309.05338    215.13623   -3171.2078   -2711.5143   -615.15971    12065.611 
   35950    287.14746    214.58349   -3152.7829   -2725.6728    -86.63999    12064.918 
   36000    280.16101    214.33865   -3144.6217   -2727.9034    155.02021    12063.906 
   36050    291.24193    214.80183    -3160.061   -2726.8607   -166.41095    12062.697 
   36100    286.53656    214.52308   -3150.7694    -2724.568    38.174014    12061.175 
   36150    292.54712    214.78128   -3159.3761   -2724.2344   -139.55103    12059.396 
   36200    301.06134    215.08789   -3169.5963   -2721.7903   -412.57922    12057.283 
   36250    292.02054    214.96292   -3165.4306   -2731.0722     -219.823    12054.709 
   36300    297.15649    215.10484   -3170.1613   -2728.1635    -327.9951    12051.734 
   36350    283.39323    214.65344   -3155.1146   -2733.5886    129.93559    12048.353 
   36400    294.95362    215.03192   -3167.7307   -2729.0095   -68.361385    12044.748 
   36450    301.84645    215.25404   -3175.1346   -2726.1609   -284.79142    12040.845 
   36500    284.93671    214.69826   -3156.6088    -2732.787    173.09939    12036.552 
   36550    280.60524    214.59675   -3153.2249   -2735.8459    364.29583    12032.086 
   36600    297.48672    215.11566   -3170.5219    -2728.033   -8.5381797    12027.521 
   36650    291.37207    214.95833   -3165.2778   -2731.8839    207.03007    12022.708 
   36700    298.17895    215.18908   -3172.9694   -2729.4508     50.98858    12017.713 
   36750    303.79154    215.31912   -3177.3041   -2725.4372   -77.758426    12012.477 
   36800    305.04216    215.33776   -3177.9253   -2724.1982   -35.919111     12006.92 
   36850    301.22989    215.34077   -3178.0257   -2729.9691    97.665525    12001.065 
   36900    285.86317    214.91799   -3163.9331   -2738.7333    614.54241    11995.004 
   36950    299.66808    215.29225   -3176.4082   -2730.6747    387.56888    11988.953 
   37000    303.37423    215.48186   -3182.7288   -2731.4826    343.65118    11982.847 
   37050    301.39368    215.34762    -3178.254   -2729.9537    518.18262    11976.641 
   37100    288.98122     214.9733   -3165.7767   -2735.9391    879.51492    11970.445 
   37150    313.07707    215.74829   -3191.6095   -2725.9311    298.04773    11964.359 
   37200    297.99592    215.30868   -3176.9559   -2733.7095       804.03     11958.21 
   37250    302.04921    215.40656   -3180.2187   -2730.9434    744.93955    11952.169 
   37300    299.91226    215.32243   -3177.4143   -2731.3176    824.12079    11946.257 
   37350    295.47825    215.18454   -3172.8181   -2733.3166    916.30793    11940.489 
   37400    308.28997    215.62637   -3187.5457   -2728.9877    599.32837    11934.903 
   37450    306.56384     215.5565   -3185.2165   -2729.2261     862.3985    11929.388 
   37500    296.66569    215.39023   -3179.6744   -2738.4067    1232.1378    11924.057 
   37550      307.301     215.7049   -3190.1633   -2733.0763    978.47229    11919.075 
   37600    297.14158    215.29531   -3176.5104   -2734.5348    1308.8808    11914.355 
   37650    291.24474    215.15614   -3171.8713   -2738.6668    1475.1798    11910.029 
   37700    297.86242     215.3659   -3178.8634   -2735.8156    1358.1074    11906.195 
   37750    303.36628    215.56441   -3185.4803   -2734.2459    1281.2401      11902.8 
   37800     314.9678     215.8902     -3196.34   -2727.8493    1074.1909     11899.78 
   37850    295.44055    215.22388   -3174.1294    -2734.684    1785.5954    11897.101 
   37900    297.96889    215.37604   -3179.2013   -2735.9951    1709.9405    11895.041 
   37950    303.12401    215.51595    -3183.865    -2732.991    1406.9008    11893.607 
   38000    303.11925    215.47355   -3182.4516   -2731.5847    1390.3511    11892.662 
   38050    292.78329    220.23711   -3174.5703   -2739.0774    1709.8832     11892.21 
   38100      292.373    220.28809   -3176.2695   -2741.3868    1680.4881    11892.392 
   38150    302.61025    220.55517   -3185.1725   -2735.0627     1289.934    11893.216 
   38200    308.18412    220.79938   -3193.3126   -2734.9121    1074.7497    11894.488 
   38250    304.47354    220.77394   -3192.4646   -2739.5833     1212.249    11896.093 
   38300    293.59252    220.42852   -3180.9505   -2744.2539    1505.1075    11898.124 
   38350     298.2496    220.53093   -3184.3644   -2740.7408    1266.1577    11900.687 
   38400    300.07399    220.71578   -3190.5259   -2744.1886    1002.2482    11903.678 
   38450     295.1955    220.57142    -3185.714   -2746.6331    1081.7142    11906.994 
   38500     287.7278    220.29918   -3176.6392   -2748.6659    1340.5589    11910.671 
   38550    289.29965    220.43659   -3181.2197   -2750.9084     1189.107    11914.832 
   38600    306.64539    220.93814   -3197.9379   -2741.8261    583.90415    11919.383 
   38650    287.01137    220.33745   -3177.9151   -2751.0075    1096.6306    11924.069 
   38700    279.97712    220.21157   -3173.7191   -2757.2744    1156.8787    11929.112 
   38750    295.35102    220.69542   -3189.8473    -2750.535    502.23153    11934.548 
   38800    287.27354    220.44836   -3181.6121   -2754.3145    658.28792    11940.091 
   38850    290.64824    220.53957   -3184.6522    -2752.335    502.63981    11945.766 
   38900    305.38899    221.01109   -3200.3696   -2746.1266   -44.792997    11951.488 
   38950    295.70904    220.72043    -3190.681   -2750.8362    154.13501    11957.021 
   39000    278.90762    220.20393   -3173.4644   -2758.6105    637.25869     11962.44 
   39050    275.74644     220.1044   -3170.1465   -2759.9946    668.86636     11967.98 
   39100    284.90601    220.41648   -3180.5493   -2756.7732    290.33416    11973.672 
   39150    294.03394    220.68993   -3189.6645   -2752.3112    5.7381909    11979.315 
   39200    264.72809    219.71849   -3157.2831   -2763.5201    831.13465    11984.832 
   39250    276.44391    220.13367   -3171.1223    -2759.933     437.7108    11990.519 
   39300    294.49036    220.68535   -3189.5117   -2751.4796   -200.05809    11996.241 
   39350    293.43365    220.64446   -3188.1487   -2751.6884   -238.28554    12001.678 
   39400    280.85857    220.24893   -3174.9643   -2757.2085    49.818422    12006.806 
   39450    275.69056    220.07027   -3169.0091   -2758.9402      135.429    12011.762 
   39500    278.76062    220.13416   -3171.1388   -2756.5035    26.204688    12016.584 
   39550    285.86439     220.3897   -3179.6566    -2754.455   -201.31278    12021.205 
   39600    290.32696    220.52072   -3184.0239   -2752.1846   -405.05218    12025.526 
   39650    287.64708    220.41893    -3180.631   -2752.7777   -479.05986    12029.442 
   39700    274.61248    220.02016   -3167.3387   -2758.8735   -144.54497    12032.915 
   39750    274.18418    219.90897   -3163.6322    -2755.804   -76.668702      12036.1 
   39800    280.99497    220.10878   -3170.2927    -2752.334   -266.92442     12039.02 
   39850    282.33989    220.17397   -3172.4656   -2752.5065   -346.84788    12041.589 
   39900     281.4448    220.05186   -3168.3955   -2749.7677    -296.7505    12043.779 
   39950    283.69106    220.09677   -3169.8925   -2747.9235   -260.32959     12045.58 
   40000    285.40974    220.14535   -3171.5116   -2746.9863   -294.19448    12047.011 
   40050      279.662    219.97867   -3165.9558   -2749.9797   -158.91465     12048.08 
   40100    278.59261    219.80129   -3160.0431   -2745.6577    10.670521    12048.847 
   40150    283.13783    219.98607   -3166.2024   -2745.0563   -89.748686    12049.387 
   40200    287.28642    220.06394    -3168.798   -2741.4812   -205.73599    12049.664 
   40250    307.00958    220.60999   -3186.9995   -2730.3461   -733.45201    12049.568 
   40300    288.86979    219.92455   -3164.1517   -2734.4798   -165.75119    12048.912 
   40350    281.75677    219.65829   -3155.2763   -2736.1845    123.98166    12047.914 
   40400     293.8306    220.11276   -3170.4255   -2733.3747   -211.35174    12046.728 
   40450    301.47072    220.30645   -3176.8816   -2728.4668   -347.65979    12045.195 
   40500    283.45528    219.65582    -3155.194   -2733.5758     275.5604    12043.284 
   40550      286.757    219.75419   -3158.4731   -2731.9437    221.60095    12041.248 
   40600    289.80156    219.80041   -3160.0136   -2728.9557    169.10401    12039.093 
   40650    290.18065    219.77935   -3159.3116   -2727.6899    222.85845    12036.799 
   40700    294.08466    219.83064   -3161.0213   -2723.5926    226.76755    12034.371 
   40750    298.70216    219.90612   -3163.5375   -2719.2407    229.74095    12031.813 
   40800    300.17074    219.91613   -3163.8709   -2717.3897     177.8643    12029.144 
   40850    303.56367    220.01804    -3167.268   -2715.7401    167.89212    12026.324 
   40900    292.88477    219.59195   -3153.0649    -2717.421    644.77346    12023.365 
   40950    300.62963    219.90374   -3163.4579   -2716.2941    500.82626    12020.449 
   41000    305.86993    219.99309   -3166.4364   -2711.4781    397.17186    12017.552 
   41050    302.72827     214.9241   -3164.1368   -2713.8514    454.02041    12014.605 
   41100    299.98805     214.7088     -3156.96   -2710.7505    589.27172    12011.631 
   41150     301.0825    214.79089   -3159.6962   -2711.8588    583.05633    12008.706 
   41200     305.4407    214.86392   -3162.1305   -2707.8106    609.91893    12005.817 
   41250    292.16117    214.35974   -3145.3247   -2710.7571     1093.709    12003.016 
   41300    306.51217    214.86813    -3162.271   -2706.3574       696.47    12000.462 
   41350    297.18018    214.59423   -3153.1411   -2711.1081    994.56744    11998.058 
   41400    307.22011    214.80564   -3160.1879   -2703.2212    781.23877     11995.88 
   41450    327.25431    215.48864   -3182.9548   -2696.1888    237.62916    11993.818 
   41500    304.23227    214.80563   -3160.1878   -2707.6653    884.69385    11991.683 
   41550    305.22713    214.84626    -3161.542   -2707.5398    890.85367    11989.689 
   41600    295.90394    214.41628   -3147.2094   -2707.0747    1121.2433    11987.934 
   41650    312.99645    215.01538   -3167.1794    -2701.621    613.06751    11986.455 
   41700    301.84369    214.60747   -3153.5824   -2704.6128    1097.8634    11985.097 
   41750    301.87326    214.72379   -3157.4598   -2708.4462    1196.9504    11984.028 
   41800    300.04817    214.64275   -3154.7585   -2708.4596    1216.6431    11983.346 
   41850    310.92684    214.95623   -3165.2075   -2702.7274    841.32044    11983.028 
   41900    312.05408    215.00684   -3166.8946   -2702.7378    804.39264    11982.923 
   41950    330.75736       215.52   -3183.9999   -2692.0233    392.43536    11982.954 
   42000    324.74005    215.36436    -3178.812   -2695.7858    606.23731    11982.947 
   42050     303.4337    214.75572   -3158.5241   -2707.1894    1186.2915    11983.011 
   42100    306.85165    214.82043   -3160.6808   -2704.2623    1064.5243    11983.414 
   42150    316.58437    215.14801   -3171.6005   -2700.7052    778.25852    11984.096 
   42200    298.87231     214.5728   -3152.4265   -2707.8766    1248.5595    11984.977 
   42250    316.66402    215.09712   -3169.9041   -2698.8903    759.64839    11986.213 
   42300      314.562      215.028   -3167.6002    -2699.713    875.63044    11987.627 
   42350    306.87247    214.79074   -3159.6913   -2703.2417    1216.2621    11989.243 
   42400    299.93485    214.64597   -3154.8657   -2708.7354    1352.0672    11991.258 
   42450    304.79855    214.81148   -3160.3826   -2707.0179    1147.6266    11993.732 
   42500    320.48861    215.25774   -3175.2579   -2698.5554    569.46843    11996.552 
   42550    317.58118    215.15589   -3171.8628   -2699.4849    549.07373    11999.452 
   42600    308.34712    214.97312   -3165.7706   -2707.1276    749.73914    12002.403 
   42650    303.36833    214.80994   -3160.3314    -2709.094    872.98776    12005.504 
   42700    299.10317    214.71739   -3157.2464   -2712.3531    869.01052    12008.822 
   42750    306.56945    214.96095   -3165.3651   -2709.3663    518.72816    12012.348 
   42800    313.15203    215.12282   -3170.7607   -2704.9708    322.80226    12015.924 
   42850    299.38152    214.64058    -3154.686   -2709.3786    702.39001    12019.455 
   42900    295.31886     214.6028   -3153.4266   -2714.1621    679.07655    12023.088 
   42950    304.42381    214.96614    -3165.538   -2712.7306    329.63319    12026.834 
   43000    300.91809    214.87168   -3162.3895   -2714.7966    408.64649     12030.56 
   43050    300.37105     219.8372   -3161.2401   -2714.4609    407.31795    12034.277 
   43100    294.61696    219.71583   -3157.1943   -2718.9739    425.22489    12037.981 
   43150    288.87399    219.52346   -3150.7821   -2721.1039    559.13806    12041.693 
   43200    294.55052    219.71802   -3157.2674   -2719.1458    314.00484    12045.477 
   43250    299.51736    219.98833   -3166.2776   -2720.7682    114.97405    12049.212 
   43300    288.36802    219.62449   -3154.1496   -2725.2241    364.96482    12052.822 
   43350    305.96425    220.13274   -3171.0913   -2715.9927   -283.65331     12056.37 
   43400    301.34383    220.02203   -3167.4011    -2719.175   -210.11857    12059.582 
   43450    297.72061    219.90879   -3163.6262   -2720.7894   -61.058381    12062.451 
   43500    284.67686    219.60563    -3153.521   -2730.0858    266.09697    12065.073 
   43550    286.26964    219.63621   -3154.5403   -2728.7359    185.00459    12067.605 
   43600    303.86911    220.14604   -3171.5348   -2719.5525   -398.05954    12069.998 
   43650    280.88162    219.50253   -3150.0844   -2732.2943    184.51262    12072.004 
   43700    275.00608    219.27309   -3142.4362   -2733.3855    354.55694    12073.873 
   43750    291.50971    219.79937   -3159.9792   -2726.3806    -176.7879    12075.692 
   43800    285.62011     219.6596     -3155.32   -2730.4818   -86.491575    12077.238 
   43850    289.20635    219.77631   -3159.2102   -2729.0377   -247.97976    12078.509 
   43900    291.54588     219.8715   -3162.3832   -2728.7308   -359.29026    12079.403 
   43950    281.42372    219.61246   -3153.7488   -2735.1523   -171.66974    12079.902 
   44000    289.81223    219.92085   -3164.0284   -2732.9547   -428.13998     12080.07 
[...]
   89400    299.33818    223.74399   -3124.7997   -2679.5569    651.40268    12098.573 
   89450    296.99855    223.60016   -3120.0052   -2678.2424    727.91451    12098.874 
   89500    308.73324    224.07321   -3135.7736   -2676.5563      314.958    12099.317 
   89550     306.3809    223.97826   -3132.6085   -2676.8901    395.79753    12099.724 
   89600    300.52626    223.77099   -3125.6998   -2678.6898    575.37445    12100.104 
   89650    312.46246    224.10445    -3136.815   -2672.0507    258.43231    12100.525 
   89700    315.52412    224.20147    -3140.049   -2670.7308    132.81334    12100.861 
   89750    315.93716    224.17255    -3139.085   -2669.1525    134.47027    12101.024 
   89800    308.99657    223.89218   -3129.7394   -2670.1304    380.56462     12101.04 
   89850     305.2169    223.79681   -3126.5603   -2672.5733    499.19799    12101.027 
   89900    307.07119    223.79038    -3126.346   -2669.6009    521.86039     12101.03 
   89950    301.55585    223.68928   -3122.9761   -2674.4346    669.13219    12101.093 
   90000     302.1858    223.57039    -3119.013   -2669.5345    742.40386    12101.291 
   90050    310.42278     223.8029   -3126.7634    -2665.033    524.79043    12101.624 
   90100    317.81131    224.01535    -3133.845   -2661.1247    260.14415    12102.012 
   90150    314.81999    223.93502   -3131.1673   -2662.8964    423.26367    12102.319 
   90200     308.8435    223.82041    -3127.347   -2667.9657    603.64475    12102.618 
   90250    323.75881    224.30786   -3143.5954   -2662.0288    163.21172    12102.958 
   90300    296.80999    223.43117   -3114.3723   -2672.8899     1005.585    12103.224 
   90350    306.59198    223.83679    -3127.893   -2671.8607    723.78406    12103.719 
   90400     309.6732    223.82223   -3127.4076   -2666.7922    619.89359    12104.386 
   90450    300.16203    223.51189    -3117.063   -2670.5948    837.76705    12105.176 
   90500    321.73405    224.17334   -3139.1113   -2660.5563    256.56179    12106.128 
   90550    313.96675    223.92719   -3130.9064   -2663.9047    493.94599    12107.028 
   90600    313.62781    224.03409   -3134.4697   -2667.9721    455.55569    12107.924 
   90650    299.17523    223.54293   -3118.0978   -2673.0973    879.23678     12108.86 
   90700    312.45824    224.02688   -3134.2292   -2669.4712    456.59628    12109.979 
   90750     306.2514     223.7492   -3124.9734   -2669.4476    625.54668     12111.16 
   90800    294.49624    223.32042   -3110.6807   -2672.6398    984.44309    12112.447 
   90850    302.63549    223.57657   -3119.2192   -2669.0718    717.48416    12113.986 
   90900    307.22168    223.74689   -3124.8962   -2667.9272    566.39368    12115.679 
   90950    311.30838    223.88241   -3129.4135   -2666.3659    365.01531    12117.439 
   91000    309.68605    223.88547   -3129.5158   -2668.8813    333.48037    12119.155 
   91050    302.14808    223.63451   -3121.1503    -2671.728    604.35928    12120.824 
   91100    311.94185    223.93432   -3131.1442   -2667.1543    322.83417    12122.544 
   91150    304.42868    223.71584   -3123.8614   -2671.0468    438.62375     12124.21 
   91200    310.06904     224.0354   -3134.5135   -2673.3093    173.52095     12125.85 
   91250    320.77185    224.38532   -3146.1772   -2669.0534   -174.82058    12127.334 
   91300    300.31334    223.70017    -3123.339   -2676.6456    357.20275    12128.529 
   91350    298.16601    223.64975   -3121.6583    -2678.159    405.63661    12129.643 
   91400    308.95458    223.93243    -3131.081   -2671.5345    125.93257     12130.72 
   91450    301.18185    223.66681   -3122.2271   -2674.2419    309.33408    12131.658 
   91500    299.48979    223.65156   -3121.7187   -2676.2503    295.84594    12132.503 
   91550    305.48435    223.84228   -3128.0761   -2673.6912     87.40919    12133.257 
   91600    300.54719    223.70601   -3123.5338   -2676.4927    181.41412    12133.844 
   91650    302.78964    223.88045   -3129.3482   -2678.9716    84.187706    12134.293 
   91700     311.5191    224.24162   -3141.3873   -2678.0262   -101.06241    12134.558 
   91750    292.78898    223.67802   -3122.6007   -2687.0993    444.03809    12134.569 
   91800    293.11363     223.7944     -3126.48   -2690.4957    352.88569    12134.548 
   91850    290.63431    223.77721   -3125.9068   -2693.6103    265.58095    12134.521 
   91900    299.82126    224.11262   -3137.0873   -2691.1259   -23.315893    12134.394 
   91950    301.59257    224.15798   -3138.5994   -2690.0033    -23.12634     12134.06 
   92000    305.78232    224.26943   -3142.3144   -2687.4864     -224.157    12133.482 
   92050    309.26071     224.4302   -3147.6734   -2687.6715      -399.66    12132.545 
   92100    281.94788    223.53264   -3117.7545   -2698.3784    371.22128    12131.228 
   92150    286.99648    223.78385   -3126.1282   -2699.2427    168.58757    12129.828 
   92200     299.8085    224.27762   -3142.5872   -2696.6448    -221.1034    12128.307 
   92250    299.96422      224.283   -3142.7667   -2696.5927   -222.94818    12126.475 
   92300    290.95585    224.03717   -3134.5722   -2701.7974    25.723159    12124.314 
   92350     288.5248    223.90542   -3130.1807   -2701.0219    94.431441     12121.95 
   92400    298.06991     224.2668   -3142.2268   -2698.8704   -117.10384    12119.407 
   92450    288.90894    223.98768   -3132.9227   -2703.1926    185.52053    12116.624 
   92500    292.90012    224.21226   -3140.4087   -2704.7419    17.615714    12113.706 
   92550    297.70398    224.45142   -3148.3806   -2705.5685   -52.938155    12110.605 
   92600    285.79917    224.01771   -3133.9237   -2708.8191    334.57365    12107.298 
   92650    296.33642    224.39688   -3146.5626   -2705.7846    43.076387    12103.923 
   92700    298.65741    224.47876    -3149.292   -2705.0617   -87.054802    12100.387 
   92750    296.29047    224.41965   -3147.3216   -2706.6119    -78.49853    12096.597 
   92800    307.05843     224.7956   -3159.8534   -2703.1272   -342.58187    12092.536 
   92850    285.56508    224.12967   -3137.6557   -2712.8992    306.85403    12088.142 
   92900    298.75007    224.57918   -3152.6393   -2708.2712   -27.072709    12083.644 
   92950    306.12054    224.78952   -3159.6506   -2704.3195   -189.12075    12078.938 
   93000    286.35239    224.21874   -3140.6246   -2714.6971    447.92382    12073.978 
   93050     301.8286    224.74787   -3158.2625   -2709.3153     57.97078    12069.007 
   93100    289.19497    224.35822   -3145.2741   -2715.1185    522.61459    12063.931 
   93150    287.31748    224.22198   -3140.7327   -2713.3697    688.90077    12058.922 
   93200     299.8125    224.66778   -3155.5925   -2709.6442    250.48095    12054.049 
   93250     295.6964    224.66561   -3155.5203   -2715.6943    307.78539    12049.129 
   93300    292.32468    224.52544   -3150.8481   -2716.0373    512.49172    12044.188 
   93350    291.74831    224.48527    -3149.509   -2715.5555     593.1234    12039.319 
   93400    303.00791    224.88781    -3162.927   -2712.2257    308.17758    12034.532 
   93450    298.08733    224.80877   -3160.2922   -2716.9099     465.2098    12029.745 
   93500    300.02251     224.9871   -3166.2366   -2719.9758    442.94012     12024.98 
   93550    301.70155    225.01073   -3167.0243   -2718.2661    476.68237    12020.257 
   93600    303.60734    224.99169   -3166.3897   -2714.7968    594.60807    12015.595 
   93650    288.32034    224.50754   -3150.2514   -2721.3967    1110.6197    12011.077 
   93700    297.07448    224.84969   -3161.6564   -2719.7806    746.73732    12006.895 
   93750     306.6099    225.21959   -3173.9864   -2717.9274    341.74917    12002.899 
   93800    292.51611     224.7326   -3157.7535   -2722.6579    784.64268    11998.933 
   93850    295.35794    224.72417   -3157.4724   -2718.1498    786.10016    11995.152 
   93900    297.31573    224.80049   -3160.0163   -2717.7817    684.44977     11991.59 
   93950    313.23679    225.34607   -3178.2024   -2712.2864    289.93027    11988.154 
   94000    299.78394     224.8982   -3163.2734   -2717.3675      771.953    11984.716 
   94050    289.99328    219.65939    -3155.313     -2723.97    1101.6504    11981.455 
   94100    296.29078     219.9065   -3163.5499   -2722.8398    937.96098    11978.525 
   94150    286.58427    219.56329   -3152.1098   -2725.8374    1268.7171    11975.902 
   94200    298.69433    219.95994   -3165.3313   -2721.0461    913.36537    11973.686 
   94250    296.33601    220.01872   -3167.2907   -2726.5133    904.20404    11971.754 
   94300     303.5848    220.23508   -3174.5026   -2722.9432    798.88027    11970.049 
   94350     302.7201    220.19976   -3173.3255   -2723.0523    883.66527    11968.547 
   94400    291.95693    219.92825   -3164.2751   -2730.0113    1194.5527    11967.291 
   94450    293.48785    219.92507   -3164.1689    -2727.628    1178.9666    11966.425 
   94500    303.66536      220.396   -3179.8667   -2728.1875    774.62132    11965.924 
   94550      296.486    220.10333   -3170.1109   -2729.1104    969.38945    11965.638 
   94600     298.7185    220.16385   -3172.1284   -2727.8073    916.32578    11965.616 
   94650    306.13756    220.32916   -3177.6387   -2722.2823     712.8574    11965.839 
   94700     300.2432    220.16808   -3172.2693   -2725.6803    862.05978    11966.224 
   94750    287.00317    219.77669   -3159.2231   -2732.3277     1203.068    11966.818 
   94800    291.72836    220.10713   -3170.2376   -2736.3138    970.40569    11967.773 
   94850    291.61975    220.09567   -3169.8555   -2736.0933    980.10231    11969.032 
   94900    288.18851    219.99621   -3166.5405   -2737.8819    1102.3914    11970.552 
   94950    295.01905    220.18556    -3172.852   -2734.0335    846.19438      11972.4 
   95000    288.65987    220.03562   -3167.8539   -2738.4942    904.44339    11974.477 
   95050    300.36112    220.43822   -3181.2738   -2734.5094    463.35417    11976.749 
   95100    305.51376    220.66097   -3188.6988   -2734.2703    199.04689    11979.045 
   95150    297.15012    220.46287   -3182.0958   -2740.1075    364.29944      11981.2 
   95200    285.61414     220.1096   -3170.3199   -2745.4905    639.17643    11983.309 
   95250    284.34786    220.14358   -3171.4527   -2748.5068    661.22004    11985.503 
   95300    282.08177    220.11535   -3170.5118   -2750.9366    692.32348    11987.816 
   95350    285.98504    220.25243   -3175.0809   -2749.6998    438.03745    11990.257 
   95400    292.25085    220.47825   -3182.6084   -2747.9074    138.16918    11992.685 
   95450    286.55334    220.37426    -3179.142   -2752.9157    190.00022    11994.957 
   95500    288.71457    220.39208   -3179.7359   -2750.2948    158.35367    11997.082 
   95550    281.60878    220.23058   -3174.3526   -2755.4809    290.05895    11999.079 
   95600    275.03359    220.04096   -3168.0319   -2758.9403    456.16412    12000.988 
   95650    277.05466    220.08918   -3169.6392   -2757.5414    330.70196    12002.899 
   95700    292.21652    220.63708   -3187.9026   -2753.2527   -132.79329    12004.747 
   95750    277.71969    220.21132   -3173.7105   -2760.6235    331.82059    12006.336 
   95800    280.13386    220.34058   -3178.0195   -2761.3416    322.35621    12007.844 
   95850    279.06994    220.19543    -3173.181   -2758.0857    412.49354    12009.312 
   95900    283.52932    220.36623   -3178.8742   -2757.1458    258.85018    12010.751 
   95950    291.69018    220.57364   -3185.7881   -2751.9211   -44.829364    12012.091 
   96000    275.12502    220.04002   -3168.0007   -2758.7731     410.3886    12013.207 
   96050    272.46659    220.06128   -3168.7094    -2763.436    434.72817    12014.291 
   96100    287.31698    220.56939   -3185.6464   -2758.2842    -112.1484    12015.358 
   96150    281.53401    220.36714   -3178.9046   -2760.1441    5.1721284    12016.173 
   96200    284.60006    220.46825   -3182.2751   -2758.9541   -66.804151    12016.744 
   96250    272.43403    220.10718   -3170.2394   -2765.0144    298.03457    12017.075 
   96300    274.49391    220.13349   -3171.1162   -2762.8273    254.08997    12017.319 
   96350    271.93503    220.02738   -3167.5794   -2763.0967    297.38339      12017.5 
   96400    285.83658    220.43616   -3181.2052    -2756.045   -123.02778     12017.58 
   96450    289.24038    220.52116   -3184.0387   -2753.8155   -297.11375    12017.391 
   96500    283.59065    220.34989   -3178.3298   -2756.5102   -66.041207    12016.822 
   96550    274.23702    220.02375   -3167.4583   -2759.5515    248.13259    12016.016 
   96600    290.68137    220.46563   -3182.1876   -2749.8211   -225.65441    12015.081 
   96650    281.11602    220.22997   -3174.3323   -2756.1935    107.84634    12013.853 
   96700    285.90969    220.30318   -3176.7727   -2751.5037    90.424136    12012.436 
   96750    276.57693    219.96593    -3165.531   -2754.1438    396.63571    12010.872 
   96800    286.83002    220.24982    -3174.994   -2748.3561    213.85595    12009.275 
   96850    280.02065    219.97917   -3165.9724   -2749.4629    457.86318     12007.61 
   96900     296.9565    220.39598   -3179.8661   -2738.1658    33.804279    12005.923 
   96950    295.35768    220.37656   -3179.2185   -2739.8963    152.13075    12004.067 
   97000    295.71816    220.35901   -3178.6337   -2738.7753     262.0158    12002.061 
   97050    296.51343    220.30462   -3176.8207   -2735.7795    425.67299    11999.967 
   97100    282.38324    219.70523   -3156.8409   -2736.8172    943.36862    11997.901 
   97150    289.80326    219.94963   -3164.9875   -2733.9271    672.46919    11996.066 
   97200    289.96501    219.76791   -3158.9303   -2727.6293     795.8768    11994.394 
   97250    306.73774    220.37597   -3179.1989   -2722.9498     352.7651    11992.877 
   97300    303.29955    220.27025    -3175.675     -2724.54    500.85463    11991.346 
   97350    296.13863    220.04421   -3168.1404   -2727.6566      850.893    11989.847 
   97400    285.90299    219.57614   -3152.5381    -2727.279      1213.69    11988.585 
   97450    292.57352    219.74568   -3158.1893   -2723.0083    1088.8801    11987.701 
   97500     304.0512    220.03102   -3167.7007   -2715.4476    875.19785     11987.15 
   97550    294.36424    219.73796   -3157.9319   -2720.0874    1114.6109    11986.853 
   97600    293.57133    219.73927   -3157.9756   -2721.3105    1131.8714    11986.895 
   97650    310.97882    220.20331   -3173.4435   -2710.8861    663.78023    11987.266 
   97700    300.20821    219.81196   -3160.3986   -2713.8616    929.26042    11987.803 
   97750     305.2506    220.01183   -3167.0609   -2713.0237    667.69568    11988.563 
   97800    302.24232     219.9581   -3165.2699   -2715.7073    639.01028    11989.444 
   97850    296.93283    219.70145   -3156.7149   -2715.0498    877.72235    11990.419 
   97900     296.5923    219.72307   -3157.4357   -2716.2771    923.03719    11991.623 
   97950    304.28661    219.94807   -3164.9358   -2712.3325    765.35846    11993.049 
   98000     299.7016    219.69858   -3156.6192   -2710.8358    903.56214    11994.645 
   98050    314.72317    220.27254   -3175.7512   -2707.6244    349.63967    11996.433 
   98100     300.4909    219.74555    -3158.185   -2711.2275    800.72906    11998.199 
   98150    285.25393    219.26759   -3142.2531   -2717.9595    1354.0552    12000.146 
   98200    299.48821    219.76615   -3158.8718   -2713.4058    972.24795    12002.508 
   98250    298.86716    219.68874   -3156.2914   -2711.7491    948.32063    12005.146 
   98300    297.79023     219.6324   -3154.4132   -2711.4728    941.89613    12008.031 
   98350    293.88956    219.55493    -3151.831   -2714.6926    996.27604    12011.175 
   98400    307.01195    219.97394   -3165.7979   -2709.1408    589.85806    12014.573 
   98450    317.59336    220.27114   -3175.7046   -2703.3085    224.73674    12018.027 
   98500    301.76681      219.766   -3158.8667   -2710.0114    606.02878    12021.385 
   98550    301.63109    219.74402   -3158.1339   -2709.4805    514.17772    12024.783 
   98600    302.84803    219.74262   -3158.0873   -2707.6238    468.80722    12028.195 
   98650    293.87734    219.45681   -3148.5602   -2711.4399    689.52874    12031.623 
   98700    302.14047    219.70918   -3156.9727   -2707.5616    426.41584    12035.138 
   98750    305.84135    219.73395   -3157.7982   -2702.8824    361.56302    12038.636 
   98800    305.46188    219.67323   -3155.7744    -2701.423    355.02838    12042.071 
   98850     304.1123    219.65288   -3155.0959   -2702.7519    436.81724    12045.437 
   98900    282.25088    218.88943   -3129.6477   -2709.8209    1027.0401    12048.825 
   98950    296.02499    219.40869   -3146.9563   -2706.6415    545.61637    12052.446 
   99000    310.82498     219.8457   -3161.5233   -2699.1946    68.569939    12056.119 
   99050    306.91209    214.83666   -3161.2219   -2704.7134    8.7027409    12059.585 
   99100    314.63946    214.94473   -3164.8243    -2696.822   -234.76098    12062.773 
   99150    309.69598    214.83515   -3161.1716   -2700.5224   -125.02238    12065.578 
   99200    285.49675    214.05823   -3135.2743   -2710.6195    528.00066    12068.074 
   99250    295.67132    214.45114   -3148.3714   -2708.5827    143.58703    12070.532 
   99300    314.65122    215.02986    -3167.662   -2699.6422   -392.04926    12072.795 
   99350    301.99556    214.62379   -3154.1263   -2704.9308    129.37912    12074.635 
   99400    282.31946    213.93241   -3131.0805   -2711.1517    822.85377    12076.305 
   99450    302.29921    214.61349    -3153.783   -2704.1359    189.21586    12078.076 
   99500    298.35337     214.4523   -3148.4101    -2704.632    147.51963    12079.725 
   99550     300.6129    214.55614   -3151.8715   -2704.7326    66.650384    12081.183 
   99600    299.32735    214.48749    -3149.583   -2704.3563     144.7775    12082.438 
   99650    300.98464    214.52067    -3150.689   -2702.9971    94.651893    12083.495 
   99700    298.66247     214.4308   -3147.6932   -2703.4554    184.11691    12084.347 
   99750    305.02701    214.61765   -3153.9217   -2700.2171    21.641503    12085.034 
   99800    305.68277    214.68992   -3156.3308   -2701.6508   -124.69056    12085.466 
   99850    301.98618    214.49417   -3149.8058   -2700.6243   -54.020333    12085.576 
   99900    293.29437    214.24576   -3141.5253   -2705.2722    150.47776    12085.423 
   99950    310.49661    214.82678   -3160.8928   -2699.0526   -256.07046    12085.051 
  100000    299.93885    214.46338   -3148.7792   -2702.6429     90.56283    12084.335 
Loop time of 26.7301 on 1 procs for 100000 steps with 500 atoms

Performance: 323.231 ns/day, 0.074 hours/ns, 3741.103 timesteps/s
99.8% CPU use with 1 MPI tasks x 1 OpenMP threads

MPI task timing breakdown:
Section |  min time  |  avg time  |  max time  |%varavg| %total
---------------------------------------------------------------
Pair    | 22.082     | 22.082     | 22.082     |   0.0 | 82.61
Bond    | 0.0072589  | 0.0072589  | 0.0072589  |   0.0 |  0.03
Neigh   | 0.50604    | 0.50604    | 0.50604    |   0.0 |  1.89
Comm    | 0.78784    | 0.78784    | 0.78784    |   0.0 |  2.95
Output  | 0.018327   | 0.018327   | 0.018327   |   0.0 |  0.07
Modify  | 2.7362     | 2.7362     | 2.7362     |   0.0 | 10.24
Other   |            | 0.5925     |            |       |  2.22

Nlocal:    500 ave 500 max 500 min
Histogram: 1 0 0 0 0 0 0 0 0 0
Nghost:    1582 ave 1582 max 1582 min
Histogram: 1 0 0 0 0 0 0 0 0 0
Neighs:    14547 ave 14547 max 14547 min
Histogram: 1 0 0 0 0 0 0 0 0 0

Total # of neighbors = 14547
Ave neighs/atom = 29.094
Ave special neighs/atom = 0
Neighbor list builds = 612
Dangerous builds = 0

write_data      ${walker}/final_restart_file
write_data      6/final_restart_file

quit
