LAMMPS (19 May 2017)
Processor partition = 6
  using 1 OpenMP thread(s) per MPI task
# gREM variables
variable        lambda world 1000 1005 1010 1015 1020 1025 1030 1035 1040 1045 1050 1055 1060 1065 1070 1075
variable        walker world 0 1 2 3 4 5 6 7 8 9 10 11 12 13 14 15
variable        replica world 0 1 2 3 4 5 6 7 8 9 10 11 12 13 14 15

variable        T0 equal 300.0
variable        press equal 0.0

units           real
atom_style      full
pair_style      lj/cut 5.0

# LJ particles
read_data       init_restart_file
  orthogonal box = (1.27034 1.27034 1.27034) to (23.7297 23.7297 23.7297)
  1 by 1 by 1 MPI processor grid
  reading atoms ...
  500 atoms
  reading velocities ...
  500 velocities
  0 = max # of 1-2 neighbors
  0 = max # of 1-3 neighbors
  0 = max # of 1-4 neighbors
  1 = max # of special neighbors

#dump            dump all xyz 1000 ${rep}/dump.xyz

fix             fxnpt all npt temp ${T0} ${T0} 1000.0 iso ${press} ${press} 10000.0
fix             fxnpt all npt temp 300 ${T0} 1000.0 iso ${press} ${press} 10000.0
fix             fxnpt all npt temp 300 300 1000.0 iso ${press} ${press} 10000.0
fix             fxnpt all npt temp 300 300 1000.0 iso 0 ${press} 10000.0
fix             fxnpt all npt temp 300 300 1000.0 iso 0 0 10000.0
fix             fxgREM all grem ${lambda} -.03 -30000 fxnpt
fix             fxgREM all grem 1030 -.03 -30000 fxnpt
thermo_modify   press fxgREM_press

thermo          50
thermo_style    custom step temp f_fxgREM pe etotal press vol
WARNING: New thermo_style command, previous thermo_modify settings will be lost (../output.cpp:705)
timestep        1.0

temper/grem     100000 1000 ${lambda} fxgREM fxnpt 10294 98392 #${walker}
temper/grem     100000 1000 1030 fxgREM fxnpt 10294 98392 
Neighbor list info ...
  update every 1 steps, delay 10 steps, check yes
  max neighbors/atom: 2000, page size: 100000
  master list distance cutoff = 7
  ghost atom cutoff = 7
  binsize = 3.5, bins = 7 7 7
  1 neighbor lists, perpetual/occasional/extra = 1 0 0
  (1) pair lj/cut, perpetual
      attributes: half, newton on
      pair build: half/bin/newton
      stencil: half/bin/3d/newton
      bin: standard
Per MPI rank memory allocation (min/avg/max) = 5.728 | 5.728 | 5.728 Mbytes
Step Temp f_fxgREM PotEng TotEng Press Volume 
       0    299.42262      232.507      -3416.9   -2971.5315    1317.0315    11328.967 
      50     224.5744     230.0696   -3335.6534    -3001.616    3699.8228    11329.295 
     100    196.83152    229.22757   -3307.5858   -3014.8138    4587.1694     11331.12 
     150    207.57921    229.60407   -3320.1357   -3011.3773    4158.5616    11334.937 
     200    218.33643    229.93616   -3331.2054   -3006.4465    3814.8327    11340.583 
     250    223.93167    230.01472   -3333.8242   -3000.7428    3610.8427    11347.899 
     300    222.32795    229.92661   -3330.8869   -3000.1909    3594.4796    11356.788 
     350     215.7372    229.64809    -3321.603   -3000.7103    3664.4563    11367.252 
     400    229.04841    229.99968   -3333.3227   -2992.6306    3113.5592     11379.29 
     450    219.62404    229.64372   -3321.4574   -2994.7833    3253.1466    11392.711 
     500    221.91149    229.63231    -3321.077   -2991.0005    3046.0801    11407.517 
     550    222.73808    229.60231   -3320.0771   -2988.7711    2870.0306    11423.655 
     600    228.26621    229.76054   -3325.3513   -2985.8226     2478.584    11441.004 
     650    226.03115    229.57427   -3319.1423   -2982.9381    2355.5254      11459.4 
     700    217.78458    229.20948   -3306.9825   -2983.0445     2396.619    11478.795 
     750    222.62516    229.36265   -3312.0884   -2980.9504    1991.6736    11499.161 
     800    222.52287    229.21303    -3307.101   -2976.1151    1752.1462    11520.334 
     850      217.252    229.01649   -3300.5496   -2977.4038    1636.2998    11542.194 
     900    219.53968    228.94227   -3298.0758   -2971.5271    1385.6021    11564.659 
     950    226.30989    229.07978   -3302.6594   -2966.0405     968.6762    11587.572 
    1000    222.21284    228.87699   -3295.8995   -2965.3748    856.11034    11610.755 
    1050    224.52221    233.97238   -3299.0794   -2965.1196    494.48871    11634.108 
    1100    214.73351    233.48891   -3282.9637   -2963.5639    616.47493    11657.488 
    1150    210.24451    233.28722   -3276.2407   -2963.5179    551.67472    11680.911 
    1200    216.39262    233.42126   -3280.7087   -2958.8411    143.48781    11704.322 
    1250     222.5008    233.46616   -3282.2052   -2951.2521   -206.06925    11727.529 
    1300    222.57318    233.34585   -3278.1949   -2947.1341   -384.92623    11750.331 
    1350    219.90721     233.1823   -3272.7434   -2945.6481   -579.38031    11772.621 
    1400    224.53111    233.22932   -3274.3105   -2940.3375   -864.23112    11794.278 
    1450    219.26759    232.85989   -3261.9965   -2935.8525   -794.51631    11815.177 
    1500    215.42295    232.60647   -3253.5492   -2933.1239   -869.77818    11835.318 
    1550    209.03882     232.3981   -3246.6033   -2935.6739   -827.01039     11854.68 
    1600     208.3448    232.19668   -3239.8892   -2929.9921   -832.89269     11873.28 
    1650     217.0203    232.41395   -3247.1317   -2924.3304   -1273.9618    11891.089 
    1700    217.12892    232.25041   -3241.6802   -2918.7174     -1424.34    11907.915 
    1750    225.45665    232.45412   -3248.4705   -2913.1208    -1749.737    11923.652 
    1800    229.17649    232.46488   -3248.8294   -2907.9467   -1869.5671    11938.151 
    1850    222.77111     232.1827   -3239.4232    -2908.068   -1733.3081     11951.36 
    1900    225.12096    232.15202   -3238.4006   -2903.5502   -1863.2555     11963.34 
    1950     225.3102    231.99981    -3233.327   -2898.1952   -1875.2035    11974.045 
    2000    228.71374    231.96276   -3232.0919   -2891.8976    -1939.009     11983.47 
    2050    221.43254    226.70418   -3223.4725   -2894.1084   -1753.3062     11991.61 
    2100    231.58073    226.89685    -3229.895   -2885.4363    -2040.198    11998.536 
    2150     226.3269    226.58696   -3219.5654   -2882.9213   -1787.2379    12004.162 
    2200    223.98842     226.4331   -3214.4367   -2881.2709   -1623.4859      12008.6 
    2250    233.94757     226.7095   -3223.6499   -2875.6706   -1919.0568    12011.942 
    2300    231.18301     226.5609   -3218.6965   -2874.8293   -1787.7949    12014.081 
    2350    230.03446    226.43821   -3214.6069   -2872.4481   -1660.3552    12015.087 
    2400    234.95839    226.52344   -3217.4481   -2867.9653   -1765.9939    12015.031 
    2450    230.27316    226.27819   -3209.2729   -2866.7591   -1475.6047    12013.904 
    2500    236.14421     226.3024   -3210.0799   -2858.8332   -1437.9134    12011.835 
    2550    235.98932    226.16135   -3205.3785   -2854.3623   -1267.1807    12008.872 
    2600    233.20552    225.99806   -3199.9353   -2853.0597   -1095.3751    12005.119 
    2650    259.67717    226.78316   -3226.1053   -2839.8552   -1784.3739    12000.623 
    2700     250.4732    226.42111   -3214.0369    -2841.477    -1302.671    11995.129 
    2750    239.07787    225.99654   -3199.8847   -2844.2745    -756.9271    11988.847 
    2800    247.77102    226.21903   -3207.3012   -2838.7605   -863.79677     11982.05 
    2850    251.90302    226.25074    -3208.358   -2833.6714   -834.79178    11974.719 
    2900    264.75918     226.6151   -3220.5034   -2826.6942   -1073.9242    11966.852 
    2950    261.76054    226.38945   -3212.9817   -2823.6328    -715.8143    11958.378 
    3000    239.02604    225.58428   -3186.1428   -2830.6097    228.79081    11949.487 
    3050    251.15382    230.87011   -3195.6705   -2822.0982    156.07888    11940.611 
    3100    266.18539    231.32557   -3210.8523   -2814.9217   -122.75086    11931.758 
    3150    255.40088    230.78764   -3192.9213   -2813.0319    400.70902    11922.833 
    3200    267.01613    231.11473   -3203.8243   -2806.6581    274.91228    11914.026 
    3250    269.25808    231.21189    -3207.063    -2806.562    391.79391     11905.32 
    3300    272.57447    231.22181   -3207.3937   -2801.9598    418.47046     11896.75 
    3350    271.33967    231.07509   -3202.5028   -2798.9056    607.51586     11888.34 
    3400    272.54728    231.05819   -3201.9398   -2796.5463    694.03576    11880.167 
    3450    280.47854    231.29077   -3209.6924   -2792.5019    573.02974    11872.263 
    3500     267.0564    230.78084   -3192.6948   -2795.4687    1147.6977     11864.62 
    3550    273.18941    230.87981   -3195.9937   -2789.6452    1228.7106    11857.459 
    3600    279.23973    230.98305   -3199.4349    -2784.087    1309.2146    11850.857 
    3650    283.35042    231.02969   -3200.9897   -2779.5274    1430.7145    11844.823 
    3700    277.98952    230.81337   -3193.7791   -2780.2908    1711.2157    11839.411 
    3750    282.06492    230.80366   -3193.4552    -2773.905    1732.1624    11834.744 
    3800      283.765    230.77701   -3192.5671   -2770.4881    1834.4673    11830.849 
    3850    286.59049    230.76106   -3192.0354   -2765.7538    1883.3001    11827.738 
    3900    282.17622    230.50827    -3183.609   -2763.8932    2137.8432     11825.44 
    3950    288.89564    230.61445   -3187.1484    -2757.438    2079.2936    11824.053 
    4000    304.22762    231.02743   -3200.9143   -2748.3988    1747.1487    11823.522 
    4050    314.69063    226.24953   -3208.3177   -2740.2393     1546.442    11823.699 
    4100    300.99875    225.80994   -3193.6648    -2745.952    1966.8846    11824.488 
    4150    304.99017    225.89656    -3196.552   -2742.9022     1892.615    11826.026 
    4200    295.30041    225.48243   -3182.7476   -2743.5106    2296.0433    11828.329 
    4250    291.73526    225.39838   -3179.9459   -2746.0118    2421.7052     11831.54 
    4300    299.75837    225.60003   -3186.6676   -2740.7998    2029.9262    11835.716 
    4350    308.93638    225.79699   -3193.2331   -2733.7137    1777.9599    11840.667 
    4400    312.15816    225.70927   -3190.3089   -2725.9973    1787.6709    11846.269 
    4450     298.3483     225.2121   -3173.7366   -2729.9661    2164.8816     11852.51 
    4500    293.36577    225.01808   -3167.2694   -2730.9101    2237.9306    11859.562 
    4550    306.86977    225.43266   -3181.0888   -2724.6432    1742.4982    11867.442 
    4600    308.43378    225.41185   -3180.3949    -2721.623    1649.3767    11875.917 
    4650    300.04535    225.00713   -3166.9042   -2720.6095    1892.3843    11884.962 
    4700    305.27209     225.2167   -3173.8899   -2719.8208    1691.0282    11894.643 
    4750     297.7306    224.95412   -3165.1375   -2722.2858    1866.1769    11904.897 
    4800    301.67657    224.88396   -3162.7986   -2714.0775    1747.8127    11915.774 
    4850    310.78274    225.13986   -3171.3286   -2709.0628    1409.4513    11927.208 
    4900     309.6072    225.13094   -3171.0312    -2710.514    1327.3458    11939.058 
    4950    306.04697    224.96176    -3165.392   -2710.1703    1328.9294    11951.266 
    5000    315.70787    225.26685   -3175.5618   -2705.9702    879.27627     11963.78 
    5050    295.92872    229.61016    -3153.672   -2713.5004     1373.209    11976.468 
    5100    298.42946    229.54576   -3151.5253   -2707.6341    1244.4065    11989.518 
    5150    319.07299    230.13494   -3171.1648   -2696.5679    484.18944    12002.836 
    5200    293.36231    229.22672   -3140.8908   -2704.5366    1141.4496    12016.132 
    5250     295.7516    229.31422   -3143.8075   -2703.8994    998.83136     12029.64 
    5300    292.63617    229.08819   -3136.2731    -2700.999    973.76103     12043.34 
    5350    303.02292    229.39357   -3146.4524   -2695.7288    509.25104    12057.172 
    5400    299.10722    229.17604   -3139.2014   -2694.3021    513.32654    12070.972 
    5450    300.69331    229.20637   -3140.2124   -2692.9538    403.81811    12084.674 
    5500    305.29789    229.26769   -3142.2564   -2688.1489    183.90318    12098.228 
    5550    304.99484    229.30297   -3143.4324   -2689.7757    1.7288422     12111.53 
    5600    296.25185    228.88595   -3129.5316   -2688.8794    225.38062    12124.498 
    5650    293.63519    228.74723   -3124.9077   -2688.1476    295.66758    12137.215 
    5700    283.59445    228.40414   -3113.4713    -2691.646    461.50409    12149.772 
    5750    304.43452    229.01614   -3133.8713    -2681.048   -290.21735    12162.175 
    5800    294.55403    228.66242   -3122.0807    -2683.954   -130.25552    12174.112 
    5850    284.36356    228.28767    -3109.589   -2686.6198    40.302834    12185.651 
    5900    309.56331    229.03859   -3134.6196   -2674.1676   -739.60029    12196.825 
    5950    290.88643    228.38403   -3112.8009   -2680.1294   -249.80362    12207.329 
    6000    301.31031    228.68231   -3122.7438   -2674.5675   -614.84611    12217.311 
    6050    302.59383    228.69807   -3123.2691   -2673.1838   -792.71728    12226.662 
    6100    294.69836    228.34477   -3111.4924    -2673.151   -642.36079    12235.279 
    6150    299.71393    228.35567   -3111.8557   -2666.0539   -740.83127    12243.218 
    6200    294.54285    228.15874   -3105.2914   -2667.1813   -606.56113    12250.463 
    6250    297.99141    228.19167   -3106.3891   -2663.1495     -708.138    12257.061 
    6300    315.81454    228.71992   -3123.9972    -2654.247   -1255.9221    12262.967 
    6350    314.40938    228.65361   -3121.7869   -2654.1267   -1217.9849    12267.926 
    6400    290.09085    227.86776   -3095.5919   -2664.1038   -527.43843    12271.969 
    6450    294.00948    228.04168   -3101.3892   -2664.0724   -727.91882     12275.42 
    6500    287.40918    227.82181   -3094.0602   -2666.5608   -529.84301    12278.253 
    6550     282.2693    227.58521   -3086.1737   -2666.3195   -278.83341    12280.566 
    6600    293.01657    227.86796   -3095.5987   -2659.7588   -592.22335    12282.482 
    6650    314.19916    228.42719   -3114.2396   -2646.8922   -1226.7101    12283.809 
    6700    298.75479    227.84409   -3094.8029   -2650.4277   -771.12079    12284.294 
    6750    303.65845    227.92965   -3097.6551   -2645.9862   -798.30348    12284.099 
    6800    304.37432    228.00387   -3100.1291   -2647.3954   -733.36382    12283.255 
    6850    296.09999    227.64878   -3088.2927   -2647.8664   -272.67219    12281.806 
    6900    285.90864    227.24999   -3074.9997   -2649.7323    149.51585    12280.012 
    6950    298.95578    227.73005   -3091.0017   -2646.3277   -268.81597    12278.056 
    7000    298.76897    227.57605   -3085.8682    -2641.472   -185.03444     12275.78 
    7050    305.82801    227.75437   -3091.8124   -2636.9164   -339.51865    12273.183 
    7100    325.38007    228.48374   -3116.1245   -2632.1463   -926.17695    12270.181 
    7150    311.51711    227.94045   -3098.0151    -2634.657   -434.39639    12266.532 
    7200    307.05151    227.81507   -3093.8357   -2637.1198   -218.50047    12262.413 
    7250    316.48703    228.09905   -3103.3015    -2632.551   -373.14012    12257.965 
    7300    310.73609    227.82718   -3094.2394   -2632.0431   -106.99508    12253.163 
    7350    308.27562    227.73579   -3091.1929   -2632.6563    20.079866     12248.13 
    7400    303.22563    227.53083   -3084.3609   -2633.3358    219.31577    12242.919 
    7450     308.1473    227.68809   -3089.6031   -2631.2573    159.12744    12237.618 
    7500    302.52365    227.41418   -3080.4728   -2630.4917    407.08986     12232.26 
    7550    328.38801    228.26336   -3108.7786   -2620.3264   -254.78186    12226.871 
    7600    322.22575    228.08222   -3102.7407   -2623.4543   -62.791529    12221.214 
    7650    324.61093    228.13269    -3104.423   -2621.5889    12.291056    12215.306 
    7700    310.22044    227.66089   -3088.6962   -2627.2669    545.11845    12209.258 
    7750    323.67032    228.05643   -3101.8809   -2620.4458    260.96839    12203.263 
    7800     300.5487    227.33799   -3077.9331   -2630.8897    988.53189    12197.293 
    7850     307.0258    227.59801   -3086.6002   -2629.9226    815.22453    12191.635 
    7900    332.16573    228.56186   -3118.7287   -2624.6573    6.3149375    12186.211 
    7950    330.45223    228.45893   -3115.2978   -2623.7751    142.56991    12180.656 
    8000    320.67146    228.09846    -3103.282   -2626.3075    541.79666    12174.998 
    8050    320.88817     223.1947     -3106.49   -2629.1932    589.67208    12169.419 
    8100    322.20392    223.12628   -3104.2093   -2624.9554     723.3083    12163.957 
    8150    331.27843    223.48994   -3116.3313   -2623.5797    548.86397    12158.647 
    8200    316.78628    223.07902   -3102.6339   -2631.4383    945.66197    12153.474 
    8250    325.84997    223.43842   -3114.6141    -2629.937    672.09062    12148.553 
    8300    326.41997    223.43071   -3114.3571   -2628.8322    709.28295    12143.789 
    8350    313.56134    223.03076   -3101.0253   -2634.6265    1067.3886    12139.223 
    8400    333.74729    223.81996   -3127.3319   -2630.9081     435.2771    12134.955 
    8450    316.42664    223.27771   -3109.2569   -2638.5962    989.92752    12130.766 
    8500    317.71823    223.43687   -3114.5622   -2641.9804    992.14182    12126.862 
    8550    321.53097    223.51924   -3117.3079    -2639.055    846.99464    12123.276 
    8600    314.50402    223.34646   -3111.5486   -2643.7477    1063.3776    12119.929 
    8650    314.38667    223.42337   -3114.1124    -2646.486    1054.4423    12116.933 
    8700    319.53798    223.64359   -3121.4532   -2646.1646    847.16094    12114.271 
    8750    315.54468    223.53802   -3117.9341   -2648.5853    935.43906     12111.85 
    8800    294.84132    222.88816   -3096.2721   -2657.7179    1497.5835    12109.744 
    8850    308.03265     223.4086   -3113.6199   -2655.4447     1005.572    12108.151 
    8900    314.72904    223.66496   -3122.1653   -2654.0297    661.19267    12106.899 
    8950    325.70443    224.07969   -3135.9896    -2651.529    255.29782    12105.751 
    9000    317.83427     223.9404   -3131.3466   -2658.5922    407.29778    12104.533 
    9050    310.58535    223.78663    -3126.221   -2664.2488    633.85907    12103.295 
    9100    314.23479    223.96412   -3132.1374    -2664.737    638.96933    12102.142 
    9150    302.07885    223.70958   -3123.6526   -2674.3332    971.53562    12101.127 
    9200    294.16665    223.55302    -3118.434   -2680.8834    1042.3884    12100.399 
    9250    314.78278     224.2549     -3141.83   -2673.6145    372.44646    12099.974 
    9300    312.35955    224.22784    -3140.928   -2676.3169    382.23814    12099.563 
    9350    305.66003    224.00138   -3133.3792   -2678.7331    519.02565    12099.136 
    9400    305.50535    224.03205   -3134.4015   -2679.9855    412.69482     12098.75 
    9450    314.55111    224.41327    -3147.109   -2679.2381    84.363878    12098.329 
    9500    309.79995      224.339   -3144.6333   -2683.8294     224.6488    12097.753 
    9550    311.51107    224.46455   -3148.8184   -2685.4693    152.68906    12097.051 
    9600    303.96763    224.24889   -3141.6298    -2689.501    188.81976    12096.216 
    9650     304.8395    224.38798   -3146.2659   -2692.8403    70.051933    12095.235 
    9700    292.15941    223.93836   -3131.2788   -2696.7138    549.77956    12094.108 
    9750    281.58422    223.66105   -3122.0349   -2703.1998    834.43296    12093.049 
    9800    307.29521     224.5475   -3151.5834    -2694.505    80.830819    12092.147 
    9850    294.68003    224.30648   -3143.5495   -2705.2353    345.66048    12091.132 
    9900    298.63496    224.40638   -3146.8794   -2702.6826    235.62413    12090.053 
    9950    292.73037    224.16507   -3138.8356   -2703.4213     453.6015      12088.9 
   10000    279.48538    223.76121   -3125.3737   -2709.6604    886.49161    12087.787 
   10050     295.5677    224.39115   -3146.3716    -2706.737    373.60949     12086.88 
   10100    294.76107    224.37455   -3145.8182   -2707.3834       349.26    12085.993 
   10150     293.0879    224.26442   -3142.1473   -2706.2013    333.01891    12085.078 
   10200    305.24255    224.67889   -3155.9631    -2701.938   -111.60414    12084.081 
   10250     286.8194    224.20209   -3140.0696   -2713.4474    361.19332    12082.853 
   10300    290.65507    224.47319   -3149.1063   -2716.7789    257.76965     12081.56 
   10350    284.14581    224.24704   -3141.5681   -2718.9227    439.44801    12080.221 
   10400    283.15285     224.2925   -3143.0833   -2721.9149     400.8588    12078.888 
   10450      287.469    224.40614   -3146.8713   -2719.2829    223.49059    12077.551 
   10500    288.45705    224.48153   -3149.3843   -2720.3263    124.67366    12076.142 
   10550    292.06447    224.72245   -3157.4149   -2722.9912    11.662568    12074.576 
   10600    280.30919    224.33714   -3144.5713   -2727.6326    368.04144    12072.837 
   10650    297.64417    224.89418   -3163.1393   -2720.4162    -100.0666    12071.036 
   10700    278.74932    224.23956   -3141.3187   -2726.7002    455.41017    12069.041 
   10750    289.60462    224.60256   -3153.4188   -2722.6539    195.34892    12067.041 
   10800    301.17311    225.02154   -3167.3848   -2719.4126   -144.78401    12064.926 
   10850    282.95508     224.3762   -3145.8735   -2724.9993    399.07907    12062.578 
   10900    294.71644     224.7072   -3156.9065   -2718.5381    83.437788    12060.174 
   10950     281.4919    224.35985   -3145.3284   -2726.6306    417.73012    12057.648 
   11000    295.97199    224.85288   -3161.7627   -2721.5268    64.733624    12055.092 
   11050    292.46776    219.65599   -3155.1997   -2720.1761    223.79083    12052.403 
   11100    298.15879    219.87743   -3162.5809   -2719.0923    51.368941    12049.573 
   11150    291.11554    219.68605   -3156.2017   -2723.1894    268.47948    12046.551 
   11200    297.79589    219.92216    -3164.072   -2721.1232    140.26928    12043.428 
   11250    287.72689    219.54673   -3151.5578   -2723.5858    591.26045    12040.199 
   11300    282.87531    219.40678   -3146.8926   -2726.1371    805.19533    12037.044 
   11350    294.53105    219.74859   -3158.2862   -2720.1936    427.11921    12034.062 
   11400    290.44985    219.57916   -3152.6386   -2720.6164    565.28758    12031.115 
   11450    298.73789      219.931   -3164.3665   -2720.0166    381.77155    12028.225 
   11500    298.53968    219.87863   -3162.6209   -2718.5658     466.1183    12025.333 
   11550    298.13641    219.87853   -3162.6178   -2719.1625    533.36756    12022.455 
   11600     300.6647    219.97791   -3165.9304   -2718.7144     449.6513    12019.626 
   11650    286.32483     219.5296   -3150.9866   -2725.1002    846.00384    12016.827 
   11700    282.89165    219.41605   -3147.2015   -2726.4216    991.63815    12014.244 
   11750    308.28268    220.17134   -3172.3782    -2713.831    300.88988    12011.909 
   11800    305.14448    220.12487   -3170.8291   -2716.9499    387.95511    12009.531 
   11850    289.75038    219.64654   -3154.8848   -2723.9031    897.32674    12007.144 
   11900    304.36822    220.04596   -3168.1986   -2715.4739    550.50954    12004.952 
   11950    303.82323    219.97317   -3165.7724   -2713.8584    574.12117    12002.849 
   12000    301.65087    219.95444   -3165.1478    -2716.465     602.8942    12000.798 
   12050     280.8242    224.28318   -3142.7728    -2725.068    1239.6101    11998.875 
   12100    286.49868     224.4078   -3146.9266   -2720.7816    1148.2425    11997.358 
   12150     299.9537    224.93204   -3164.4013   -2718.2429    773.73383    11996.233 
   12200    304.63134    225.01665   -3167.2217   -2714.1057    705.54684    11995.312 
   12250    300.54605    224.94284   -3164.7612   -2717.7217    833.07513    11994.542 
   12300    295.51983    224.64844   -3154.9481   -2715.3847    1030.4047    11994.001 
   12350    314.25211    225.15615   -3171.8717   -2704.4455    458.68562    11993.724 
   12400    301.26105    224.84082   -3161.3608   -2713.2578    761.54373    11993.516 
   12450    293.81101    224.67623   -3155.8745   -2718.8529    1032.8971    11993.483 
   12500    306.20958    225.03657   -3167.8857   -2712.4221    797.63811    11993.738 
   12550    300.94595    224.82231   -3160.7436   -2713.1093    944.73632    11994.226 
   12600     309.4661    225.08549   -3169.5164    -2709.209    749.72737    11994.961 
   12650    293.13574    224.56959   -3152.3195   -2716.3023    1202.7725     11995.91 
   12700    296.54071    224.63464   -3154.4879    -2713.406    1125.8571    11997.227 
   12750    296.94207     224.5552   -3151.8401   -2710.1613    1192.6236    11998.911 
   12800    293.40693    224.46629   -3148.8762   -2712.4557    1242.8567    12001.013 
   12850    310.03582    224.95076   -3165.0253   -2703.8705    570.14324    12003.501 
   12900    314.56553    225.09101   -3169.7005   -2701.8081    425.75094    12006.082 
   12950    294.10111    224.29177   -3143.0589   -2705.6058    1079.0237     12008.71 
   13000    291.57631    224.33722    -3144.574   -2710.8763    993.46382    12011.629 
   13050    296.11206    219.45161   -3148.3869   -2707.9427    808.37049    12014.847 
   13100    309.86041    219.84211   -3161.4037   -2700.5099    377.76294    12018.241 
   13150    311.69459    219.89904   -3163.3013   -2699.6792    332.03489    12021.611 
   13200     296.6918    219.35276   -3145.0921   -2703.7856    820.54339    12024.938 
   13250    295.59717    219.34423   -3144.8077   -2705.1293    811.82275    12028.428 
   13300    301.67892    219.54903   -3151.6344   -2702.9098    621.42148    12032.095 
   13350    300.25374    219.45758    -3148.586   -2701.9814    686.86067    12035.857 
   13400    305.66767    219.72357   -3157.4522   -2702.7947    453.73085    12039.723 
   13450    301.43698    219.49687   -3149.8958   -2701.5312    550.06313    12043.604 
   13500    303.10303    219.56232   -3152.0773   -2701.2346    462.97515    12047.496 
   13550    292.18802    219.20577   -3140.1925    -2705.585    754.73694    12051.433 
   13600    307.78612    219.63812   -3154.6041   -2696.7956    319.30697    12055.493 
   13650    311.91661    219.77126   -3159.0421   -2695.0898    88.567668    12059.477 
   13700    298.20408    219.29192   -3143.0642   -2699.5082    407.47266    12063.277 
   13750    293.22788    219.11455   -3137.1515   -2700.9973    589.49028     12067.05 
   13800    301.95371    219.41803   -3147.2678   -2698.1346    347.22911    12070.882 
   13850    309.48266    219.60732   -3153.5773   -2693.2453    116.32258    12074.654 
   13900    305.35201    219.46805    -3148.935    -2694.747    163.00819    12078.252 
   13950    302.97141    219.33595   -3144.5318   -2693.8848    217.36428    12081.684 
   14000    301.27203     219.2462   -3141.5399   -2693.4206    354.90282    12084.989 
   14050    300.12416    219.28537   -3142.8457   -2696.4338    347.26564     12088.22 
   14100    301.94505    219.36614   -3145.5381   -2696.4178    183.44796      12091.4 
   14150    306.22613    219.48728    -3149.576   -2694.0878   0.44424491    12094.443 
   14200    306.97091    219.58065   -3152.6882   -2696.0923   -57.495697    12097.236 
   14250    297.94361    219.12348   -3137.4492   -2694.2806    240.81563    12099.761 
   14300    305.22434    219.27739   -3142.5795   -2688.5814    66.082685    12102.139 
   14350    308.38256    219.43114   -3147.7048   -2689.0091   -27.746767    12104.311 
   14400    289.50164     218.8403   -3128.0098   -2697.3981    530.30589    12106.252 
   14450    297.21576    219.07577   -3135.8589    -2693.773    318.91739    12108.188 
   14500    298.02814    219.06945   -3135.6485   -2692.3542     292.5111    12110.072 
   14550    295.22673    219.04772   -3134.9241   -2695.7967    313.23039     12111.88 
   14600    306.59621    219.43558   -3147.8528   -2691.8142   -73.104909    12113.588 
   14650    302.12659    219.27186   -3142.3954    -2693.005    7.1243233    12115.045 
   14700    306.72781    219.42038   -3147.3461   -2691.1117   -116.36776    12116.243 
   14750    304.90926    219.33639   -3144.5462   -2691.0168   -67.122045    12117.149 
   14800    304.29877    219.17034   -3139.0113     -2686.39   -24.198729    12117.784 
   14850    303.30976     219.1505     -3138.35   -2687.1998    88.159093    12118.153 
   14900    296.43639    218.99861   -3133.2868   -2692.3602    307.83564    12118.335 
   14950    307.24598    219.37533   -3145.8443   -2688.8392   -57.247035    12118.409 
   15000     311.3191    219.50577   -3150.1924   -2687.1288   -163.85089    12118.213 
   15050    293.62408    213.91338    -3130.446   -2693.7024    322.70796    12117.723 
   15100    310.60878    214.39798   -3146.5994   -2684.5924   -188.13673    12117.084 
   15150    317.73715    214.56226   -3152.0754   -2679.4655   -378.53588    12116.103 
   15200    310.26622    214.26391   -3142.1302   -2680.6327   -88.579602    12114.675 
   15250    303.67566    214.06263   -3135.4211   -2683.7265    148.83542    12112.933 
   15300    312.28995    214.37433   -3145.8109   -2681.3033   -31.243256    12110.992 
   15350    294.86945    213.83025   -3127.6751   -2689.0792    506.40055    12108.824 
   15400    307.59921    214.27377   -3142.4589   -2684.9284    157.00439    12106.608 
   15450      314.919    214.51554    -3150.518   -2682.0999   -102.78376    12104.222 
   15500    292.65302    213.80802   -3126.9338   -2691.6346    543.64769    12101.581 
   15550    300.69847      214.093   -3136.4333   -2689.1672    358.32132    12098.917 
   15600    303.59353    214.21824   -3140.6079   -2689.0356     220.2067    12096.191 
   15650    306.32666    214.40691    -3146.897   -2691.2593     132.6674    12093.309 
   15700    300.55122    214.21057   -3140.3523   -2693.3051    299.41317     12090.26 
   15750    309.96163    214.48759   -3149.5864    -2688.542    22.957126    12087.086 
   15800    316.31221    214.75235   -3158.4117   -2687.9213   -143.73997    12083.666 
   15850    317.13985     214.7617   -3158.7232   -2687.0017   -56.991488    12079.915 
   15900    309.45359    214.45392    -3148.464   -2688.1752    180.70009    12075.881 
   15950    314.08965    214.67174   -3155.7247   -2688.5401   -48.764638    12071.667 
   16000    311.15535    214.60829   -3153.6096   -2690.7896    68.358537    12067.175 
   16050    295.97764    214.15839   -3138.6129   -2698.3686    658.29866    12062.494 
   16100    304.39266    214.44089   -3148.0296   -2695.2686    469.90948    12057.874 
   16150    318.50388    214.97609   -3165.8698   -2692.1194    23.302555    12053.228 
   16200    304.88204    214.57759   -3152.5863   -2699.0974    465.09004    12048.384 
   16250    294.63287     214.2145   -3140.4832   -2702.2391    801.56481    12043.543 
   16300    319.92269     214.9568   -3165.2268    -2689.366    36.293544    12038.813 
   16350    326.10864    215.27339   -3175.7796   -2690.7177   -102.80041    12033.862 
   16400    295.67069    214.42074   -3147.3581   -2707.5704    839.13155    12028.659 
   16450    301.52115    214.61915   -3153.9716   -2705.4818    807.26528    12023.579 
   16500    310.93081    214.98833   -3166.2775   -2703.7915    550.52504    12018.678 
   16550    303.81262    214.78441   -3159.4804   -2707.5822    746.06626    12013.849 
   16600    311.80232    215.04413   -3168.1377   -2704.3554    447.65302    12009.124 
   16650    299.31212    214.68305   -3156.1018   -2710.8977    729.72502    12004.415 
   16700    310.38534    215.03406   -3167.8019   -2706.1272    444.75583    11999.799 
   16750    320.59092    215.39038   -3179.6792   -2702.8245    181.56469    11995.166 
   16800    298.40152    214.83624   -3161.2081   -2717.3585    834.69773    11990.421 
   16850    298.75225    214.90172   -3163.3906   -2719.0193    826.84016    11985.823 
   16900    292.99452    214.82114   -3160.7047   -2724.8975    942.86534    11981.434 
   16950    297.08705    214.93509   -3164.5031   -2722.6086    859.96897    11977.287 
   17000    303.20758    215.16443   -3172.1477   -2721.1495    709.45493    11973.347 
   17050    300.73198    215.08288   -3169.4293   -2722.1133    804.97237    11969.547 
   17100    303.36458    215.16292   -3172.0974   -2720.8655     698.5771    11965.917 
   17150    300.69324    215.13649   -3171.2162   -2723.9578    698.75374    11962.408 
   17200     298.3304    215.13726    -3171.242   -2727.4982    816.06839    11959.015 
   17250    305.36461    215.32769   -3177.5896   -2723.3829    695.97567    11955.788 
   17300    312.27959    215.60955   -3186.9849   -2722.4927    502.33767     11952.66 
   17350    303.10915    215.37655   -3179.2183   -2728.3664    759.99815    11949.557 
   17400    301.73098    215.43052   -3181.0172   -2732.2152    784.86814    11946.585 
   17450    289.70014    215.04661   -3168.2204   -2737.3134    1052.6651    11943.811 
   17500    301.10989    215.42243   -3180.7477   -2732.8696    722.73426      11941.3 
   17550    298.49724     215.3564   -3178.5468   -2734.5548    826.73056    11938.958 
   17600    304.13274    215.54202   -3184.7339   -2732.3595    774.11286    11936.778 
   17650    295.14084    215.25018   -3175.0061   -2736.0065    1139.9229    11934.765 
   17700    294.39183    215.34608   -3178.2027   -2740.3172    1099.9797    11933.085 
   17750    303.19635    215.60916   -3186.9722   -2735.9906    724.81246    11931.726 
   17800     291.9244    215.31903   -3177.3011   -2743.0857    1010.6397    11930.527 
   17850    303.73705    215.65206    -3188.402   -2736.6162    736.29872    11929.579 
   17900    311.70646      215.986   -3199.5332   -2735.8935    512.12973    11928.769 
   17950    284.31569    215.13411   -3171.1371    -2748.239    1354.5019    11928.031 
   18000    282.76894    215.13117   -3171.0389   -2750.4416    1382.8101    11927.713 
   18050    298.21353    220.55534    -3185.178   -2741.6079    837.99882    11927.862 
   18100    302.82838    220.75486   -3191.8286   -2741.3944    562.19848    11928.234 
   18150    299.78841    220.67556   -3189.1853   -2743.2727    572.23608    11928.674 
   18200    285.37042    220.24569   -3174.8565   -2750.3896    1008.3916    11929.216 
   18250    297.18216    220.55539   -3185.1797   -2743.1437    744.96223    11930.021 
   18300    297.50691    220.53117   -3184.3722   -2741.8532     748.7792        11931 
   18350    281.99281    220.06986   -3168.9954   -2749.5525    1148.1719    11932.161 
   18400    295.11002    220.51688   -3183.8961   -2744.9423    769.97015     11933.64 
   18450    292.87866    220.49509   -3183.1697   -2747.5349    819.90974    11935.324 
   18500    283.50924    220.21077   -3173.6923   -2751.9938     1043.421    11937.213 
   18550    299.20738     220.6475   -3188.2499   -2743.2016    570.75059    11939.389 
   18600    289.06671    220.32241   -3177.4136   -2747.4487    830.44897    11941.682 
   18650    294.01823    220.52728   -3184.2428    -2746.913    801.53513    11944.145 
   18700    293.01427    220.49197   -3183.0655    -2747.229    844.15447     11946.82 
   18750     282.6056     220.1276   -3170.9201   -2750.5657    988.42564    11949.725 
   18800    302.92076    220.73639    -3191.213   -2740.6414    337.10912     11952.86 
   18850     282.6618    220.03816   -3167.9387   -2747.5007    937.48352    11956.028 
   18900    292.44328    220.43743   -3181.2476   -2746.2604    650.59863    11959.399 
   18950    287.20563    220.16507    -3172.169   -2744.9724     774.1968    11962.915 
   19000    289.72026    220.25559   -3175.1865   -2744.2496    681.09721    11966.589 
   19050    290.87594     220.1851   -3172.8368   -2740.1809    711.41138    11970.402 
   19100    300.76685    220.57689   -3185.8962   -2738.5283    391.01875    11974.334 
   19150    290.93379    220.28553   -3176.1843   -2743.4423    514.61944    11978.276 
   19200    297.76044    220.46814   -3182.2714   -2739.3753    254.50242    11982.219 
   19250    287.84692    220.08526   -3169.5086   -2741.3581    566.54392    11986.097 
   19300    286.17205    220.09757   -3169.9191   -2744.2599    550.04443    11990.017 
   19350    293.12375    220.16838   -3172.2794     -2736.28    296.80445    11993.998 
   19400    297.36118    220.35679   -3178.5596   -2736.2574    143.31831    11997.909 
   19450    278.84004    219.75651   -3158.5504    -2743.797    648.07849    12001.709 
   19500    301.46348    220.55116   -3185.0388   -2736.6347    1.2381206    12005.543 
   19550     288.9347    219.99106   -3166.3686   -2736.6002    378.32202    12009.215 
   19600     283.7377    219.82489   -3160.8298   -2738.7915    492.51579    12012.836 
   19650    298.39562    220.28455   -3176.1518   -2732.3109    61.605376    12016.451 
   19700    286.90331    219.92172   -3164.0574   -2737.3105    314.85641    12019.914 
   19750    294.48191     220.1022   -3170.0734   -2732.0539    126.97019    12023.275 
   19800     298.9753    220.05298   -3168.4327   -2723.7296     116.6688    12026.487 
   19850    284.76073    219.58083   -3152.6942   -2729.1342    536.11787    12029.563 
   19900    295.72369     219.8947   -3163.1566     -2723.29    155.93083    12032.646 
   19950    299.95303    220.05585   -3168.5282   -2722.3709   -65.852569    12035.583 
   20000    291.25423    219.76005   -3158.6684   -2725.4498    130.15635    12038.278 
   20050     287.3973    219.52335   -3150.7784   -2723.2967    347.18966    12040.819 
   20100    303.38485    219.94586   -3164.8621   -2713.6001   -19.317293    12043.277 
   20150    317.79761    220.32325   -3177.4416   -2704.7418   -485.15629    12045.486 
   20200    303.84192    219.79199   -3159.7331   -2707.7913   -23.960556    12047.242 
   20250     294.2284    219.47959   -3149.3197   -2711.6772    390.49128    12048.736 
   20300    285.56471    219.15759   -3138.5862   -2713.8303    662.90751    12050.211 
   20350    289.69297    219.30809   -3143.6029   -2712.7066    533.79866    12051.768 
   20400     299.2013    219.55637    -3151.879   -2706.8397    316.69059     12053.37 
   20450     304.4039    219.75577   -3158.5256   -2705.7479     155.4598    12054.918 
   20500    292.34859    219.32062   -3144.0207   -2709.1743     496.3591    12056.348 
   20550    296.11859    219.39271   -3146.4237   -2705.9698    448.19935    12057.784 
   20600    308.98547     219.7995   -3159.9835    -2700.391    86.984092    12059.207 
   20650    319.82068    220.12764   -3170.9214   -2695.2123   -172.94719    12060.413 
   20700    295.62398    219.28547   -3142.8489   -2703.1306    581.99243    12061.327 
   20750     299.8745    219.39923    -3146.641   -2700.6005    431.29786     12062.25 
   20800    309.35775    219.72889   -3157.6298   -2697.4836    85.837979    12063.165 
   20850    307.86249    219.62769   -3154.2562   -2696.3341    138.29401    12063.906 
   20900    300.37805    219.37348   -3145.7828   -2698.9932    446.59776    12064.475 
   20950    297.17258    219.28815   -3142.9383   -2700.9167    578.87553    12065.052 
   21000    310.20925    219.63865   -3154.6216   -2693.2088     231.8124    12065.684 
   21050    294.66084     224.1765   -3139.2167   -2700.9311    634.73318    12066.241 
   21100    288.15069    223.95766   -3131.9221   -2703.3198    790.76547    12066.895 
   21150    308.61142    224.64549   -3154.8498   -2695.8137    94.135767    12067.705 
   21200    304.73456    224.50627   -3150.2089   -2696.9393    182.63439    12068.393 
   21250    299.20448    224.30159   -3143.3864   -2698.3424    406.67724    12068.964 
   21300    291.97773    224.03288   -3134.4294   -2700.1346    648.60891    12069.526 
   21350    312.47403    224.73244    -3157.748   -2692.9666    25.265174    12070.147 
   21400      307.221    224.59328   -3153.1094   -2696.1414    124.32584    12070.603 
   21450    295.36398    224.33019   -3144.3396   -2705.0081    460.54325    12070.896 
   21500    298.21741    224.35262   -3145.0875   -2701.5117    433.06738    12071.189 
   21550    295.71858    224.25921   -3141.9737   -2702.1147    539.93925    12071.504 
   21600    293.64561    224.10059   -3136.6864   -2699.9108    631.59596    12071.892 
   21650    299.99343    224.31273   -3143.7576   -2697.5401    360.24461    12072.373 
   21700    306.82262    224.48176   -3149.3918   -2693.0164    77.497433    12072.827 
   21750    310.45417    224.70721    -3156.907     -2695.13   -17.953434    12073.098 
   21800    296.87416    224.17766   -3139.2553   -2697.6775    501.11725    12073.176 
   21850    300.52822    224.31029   -3143.6765   -2696.6635    511.24972    12073.259 
   21900    292.40382    224.02209   -3134.0696    -2699.141    781.08716    12073.418 
   21950    306.53885    224.47181   -3149.0602   -2693.1069    389.05309     12073.72 
   22000    301.61049    224.37686   -3145.8955   -2697.2727    502.36998    12074.022 
   22050    307.00674    219.48888   -3149.6292     -2692.98    349.34279    12074.341 
   22100    302.57974    219.35236   -3145.0787   -2695.0142    400.91591    12074.625 
   22150    311.73408    219.62455   -3154.1516   -2690.4707    98.130904    12074.853 
   22200    304.67073     219.4395   -3147.9832   -2694.8086    300.11636    12074.922 
   22250    300.90799    219.31584   -3143.8613   -2696.2834    464.51428    12074.909 
   22300    301.00302    219.27513   -3142.5045   -2694.7853    423.23561    12074.881 
   22350    303.47342     219.3595   -3145.3166   -2693.9229    279.36157    12074.831 
   22400    311.61364    219.60999   -3153.6664   -2690.1647    95.548547    12074.688 
   22450    300.44102    219.31862    -3143.954   -2697.0707    428.21208    12074.377 
   22500    302.87653    219.38106   -3146.0352   -2695.5293    374.42932    12074.021 
   22550    304.46902    219.44008   -3148.0026    -2695.128    294.12136    12073.623 
   22600    303.70894    219.33253   -3144.4177   -2692.6737    346.15774    12073.131 
   22650    303.48223    219.22668   -3140.8893   -2689.4825    341.70649    12072.598 
   22700    320.09076    219.93353    -3164.451   -2688.3402   -140.68778    12071.952 
   22750    290.38826    219.00403   -3133.4676   -2701.5371    754.00898    12071.059 
   22800    300.78229    219.34268   -3144.7559   -2697.3651    477.95841    12070.256 
   22850    291.65959    219.10452   -3136.8172   -2702.9957    710.42303    12069.498 
   22900    289.12502    219.01674   -3133.8912   -2703.8396    753.28444    12068.869 
   22950    294.03879    219.15458   -3138.4859   -2701.1255    589.17645    12068.407 
   23000    314.15203    219.80892   -3160.2974   -2693.0201    26.483535    12067.993 
   23050      308.863    219.62456   -3154.1521   -2694.7418    149.21706    12067.393 
   23100    295.93865    219.26767   -3142.2556   -2702.0693    490.82078    12066.622 
   23150    299.47845     219.3886   -3146.2865   -2700.8351    417.45609     12065.85 
   23200    299.39525    219.47073   -3149.0242   -2703.6964    334.87741    12065.065 
   23250    303.73935    219.57959   -3152.6531   -2700.8638    144.83862    12064.205 
   23300    300.29955    219.51864   -3150.6213   -2703.9485    230.03535    12063.196 
   23350    291.32114      219.202   -3140.0666   -2706.7485    548.58659    12062.087 
   23400    297.60765    219.54842   -3151.6139   -2708.9451    359.05462    12061.014 
   23450    297.81237    219.45704   -3148.5681   -2705.5947    359.22297    12059.895 
   23500    296.68535    219.43636   -3147.8786   -2706.5816    348.77359    12058.722 
   23550    302.30268    219.65232   -3155.0773   -2705.4249    195.81175    12057.501 
   23600    306.59367    219.91753   -3163.9177   -2707.8828    123.85087    12056.139 
   23650    295.00669     219.4719   -3149.0634   -2710.2633     551.1138    12054.641 
   23700    296.82143    219.61014   -3153.6712   -2712.1718    542.67805    12053.175 
   23750    293.93894    219.62676   -3154.2252   -2717.0133    562.08214    12051.774 
   23800    297.95033    219.71971   -3157.3238   -2714.1453    493.40636    12050.416 
   23850    291.03123    219.44346   -3148.1154   -2715.2285    687.56297    12049.109 
   23900    300.05351    219.68438   -3156.1462   -2709.8393    368.93534    12047.904 
   23950    294.82053    219.55204   -3151.7346   -2713.2114    460.64467    12046.658 
   24000     300.0616    219.81357   -3160.4522   -2714.1333    278.38816    12045.395 
   24050    300.73391    224.82969   -3160.9897   -2713.6708    231.64143    12044.071 
   24100    309.33568    225.14935   -3171.6449   -2711.5315    10.551592     12042.62 
   24150    302.47898    224.96257   -3165.4192   -2715.5046    146.70429    12040.964 
   24200    297.23294    224.81128    -3160.376   -2718.2645      224.022    12039.154 
   24250    283.66353    224.44477   -3148.1589   -2726.2309    546.09485    12037.269 
   24300    300.03929    225.06784   -3168.9281   -2722.6424    52.118787    12035.392 
   24350    293.73966    224.87504   -3162.5015    -2725.586     163.9555     12033.36 
   24400    297.94081    225.05413    -3168.471   -2725.3066    43.681769    12031.169 
   24450    285.18503    224.58276   -3152.7586   -2728.5675    459.91459     12028.83 
   24500     292.4319    224.88251   -3162.7505   -2727.7802     330.9229    12026.475 
   24550    282.93643    224.60244   -3153.4148   -2732.5683     693.0243    12024.092 
   24600    286.49632    224.71282   -3157.0939   -2730.9524    551.15592    12021.833 
   24650    298.94228    225.16943   -3172.3144   -2727.6604    137.44193    12019.634 
   24700    282.17711    224.69535   -3156.5115   -2736.7945    658.20709    12017.346 
   24750    300.23179    225.29507   -3176.5023   -2729.9303    182.94002     12015.11 
   24800    280.29341    224.74187   -3158.0622    -2741.147    749.83097    12012.803 
   24850     287.7225    224.98685   -3166.2282   -2738.2628    588.99341    12010.623 
   24900    287.58526     224.9666   -3165.5534   -2737.7921    625.37178    12008.561 
   24950    285.25859    224.94247   -3164.7489   -2740.4484    645.31366    12006.605 
   25000    288.36127    225.01626   -3167.2086   -2738.2931    502.05183    12004.759 
   25050    287.05414    224.96861   -3165.6205   -2738.6492    444.68938    12002.962 
   25100     289.7802    225.16138   -3172.0459   -2741.0198    294.44609    12001.176 
   25150    282.46257    224.96915   -3165.6384   -2745.4967    532.04087    11999.353 
   25200    287.36246    225.12066   -3170.6885   -2743.2586    421.06253    11997.569 
   25250    279.29164    224.93882   -3164.6272   -2749.2021    639.04244    11995.822 
   25300    290.22285    225.32778   -3177.5926   -2745.9081    308.66474    11994.165 
   25350    292.24254    225.36644   -3178.8814   -2744.1928    191.81732    11992.471 
   25400    293.76958    225.44726   -3181.5752   -2744.6152    119.26808    11990.656 
   25450    283.18303     225.1484   -3171.6133      -2750.4    449.40097    11988.711 
   25500    282.21134    225.02735   -3167.5783   -2747.8103    492.01895    11986.774 
   25550    292.08118    225.30286    -3176.762   -2742.3133    169.71005    11984.868 
   25600    300.01996    225.57312   -3185.7705   -2739.5136    51.983802    11982.836 
   25650    277.92846    224.81252   -3160.4174   -2747.0198    798.78245    11980.662 
   25700    287.00425    225.12819   -3170.9396   -2744.0426    468.11674    11978.628 
   25750    284.40057    225.08262   -3169.4208   -2746.3965    495.73044    11976.657 
   25800    284.78422    225.09538   -3169.8459    -2746.251    591.27071    11974.719 
   25850    287.44889    225.23738   -3174.5793   -2747.0209    580.77953    11972.868 
   25900    273.32956    224.80668   -3160.2227   -2753.6657    969.85066    11971.153 
   25950    289.39418    225.29156   -3176.3852   -2745.9333     566.5367     11969.68 
   26000     279.6862    224.94598   -3164.8658   -2748.8538    932.28831    11968.344 
   26050    281.41167    229.94859   -3164.9529   -2746.3743    956.38872    11967.274 
   26100    292.86016    230.36622   -3178.8741   -2743.2668    654.01944    11966.472 
   26150     278.1653    229.88197   -3162.7322   -2748.9824    1113.2063    11965.878 
   26200    290.25352    230.28927   -3176.3091    -2744.579    756.98575    11965.627 
   26250     294.3739    230.41095   -3180.3649    -2742.506    594.13095    11965.571 
   26300    287.14174     230.0851   -3169.5035   -2742.4019    763.20498    11965.652 
   26350    291.41406    230.17602   -3172.5341   -2739.0778    739.84233    11965.919 
   26400    291.01991     230.0477   -3168.2566   -2735.3865    893.44112    11966.396 
   26450    312.45459    230.67253   -3189.0842   -2724.3317    323.66781    11967.085 
   26500    290.51244    229.93648   -3164.5493    -2732.434    1058.8958    11967.817 
   26550    279.07715    229.61721    -3153.907   -2738.8009    1467.1051    11968.889 
   26600    290.77604    229.86319   -3162.1064   -2729.5991    1134.5978     11970.51 
   26650    292.86038    229.84616   -3161.5385   -2725.9309    1131.0859    11972.547 
   26700    285.70678     229.5146   -3150.4867   -2725.5195    1409.7314    11975.006 
   26750    296.69911    229.85913   -3161.9709   -2720.6535    1093.3852    11977.986 
   26800    294.56565    229.79469   -3159.8229   -2721.6788    1116.8787    11981.366 
   26850     289.1416    229.45151   -3148.3836   -2718.3073     1283.983     11985.16 
   26900    300.87872    229.77448   -3159.1494   -2711.6152     939.5512    11989.418 
   26950    304.32065    229.76839   -3158.9463   -2706.2924    872.12159    11994.012 
   27000    303.38872    229.69272   -3156.4239   -2705.1562     862.6668    11998.878 
   27050    299.14567    229.52084   -3150.6946   -2705.7381    964.44349    12004.002 
   27100    283.18651    228.94163   -3131.3876   -2710.1691    1417.3934    12009.483 
   27150    289.04243    229.10758   -3136.9192   -2706.9905    1230.0469    12015.496 
   27200    297.50064    229.28913   -3142.9709   -2700.4613    937.82088    12021.975 
   27250    301.53117     229.3917   -3146.3898   -2697.8851     779.7921    12028.777 
   27300    294.74266    229.08653   -3136.2176   -2697.8103    990.69987    12035.833 
   27350    306.17069    229.51488    -3150.496   -2695.0903    590.85566    12043.198 
   27400    308.00624    229.53942    -3151.314    -2693.178    485.70808    12050.718 
   27450    297.80828     229.1968   -3139.8933    -2696.926    724.08641    12058.343 
   27500    301.83802    229.23158   -3141.0525   -2692.0914     571.2613    12066.135 
   27550    289.93535    228.85611   -3128.5369   -2697.2801    734.28589    12074.074 
   27600    302.54735      229.237   -3141.2333    -2691.217    260.49497    12082.195 
   27650    287.44959     228.6855   -3122.8501   -2695.2906    636.41403     12090.34 
   27700    291.04136    228.74063   -3124.6876   -2691.7856    487.21352    12098.612 
   27750    299.91096    229.00849   -3133.6164   -2687.5216    179.96714    12106.963 
   27800    304.22583    229.04679    -3134.893   -2682.3801    15.514748    12115.248 
   27850    307.38169    229.17942   -3139.3141   -2682.1072   -121.76005    12123.353 
   27900    299.71222     228.9897   -3132.9901   -2687.1909    69.557616    12131.223 
   27950    295.45268    228.86203   -3128.7345    -2689.271    121.48263    12138.954 
   28000    293.42037     228.6998   -3123.3265    -2686.886    195.54082    12146.562 
   28050    297.53906    223.83082    -3127.694   -2685.1272    9.0816464    12154.072 
   28100    304.49989    224.05899   -3135.2996   -2682.3791    -329.0185    12161.383 
   28150    301.54236    223.96141    -3132.047   -2683.5256   -351.96599     12168.33 
   28200    298.25561     223.8259   -3127.5301   -2683.8974   -310.06993    12174.892 
   28250    302.37627    223.90969   -3130.3229   -2680.5611   -393.29193     12181.07 
   28300    300.42212    223.74051   -3124.6837   -2677.8286   -271.98945    12186.829 
   28350    299.42245    223.66733   -3122.2443   -2676.8761   -246.51573    12192.217 
   28400     291.0035    223.40702   -3113.5672   -2680.7216   -35.520955    12197.273 
   28450    295.47603    223.51146   -3117.0485   -2677.5503   -140.24704    12202.086 
   28500    289.06611    223.33992   -3111.3305   -2681.3666      74.3078    12206.626 
   28550     288.7998    223.21442   -3107.1473   -2677.5795     68.93772    12210.995 
   28600    311.19458    223.94941   -3131.6471   -2668.7687   -639.62773    12215.137 
   28650    287.73297    223.15693   -3105.2312   -2677.2502   -79.667219    12218.793 
   28700    291.94396    223.20909   -3106.9697   -2672.7252   -257.08334    12222.137 
   28750    304.13045    223.59926   -3119.9752   -2667.6042    -633.7946     12225.11 
   28800    310.93894    223.87388   -3129.1294   -2666.6313   -964.41379    12227.536 
   28850    327.01017    224.37197   -3145.7324   -2659.3296   -1499.4296    12229.172 
   28900    299.49857    223.39537   -3113.1789   -2667.6974   -696.97427    12229.828 
   28950    303.45979     223.4844   -3116.1466   -2664.7731   -750.52192    12229.803 
   29000    292.01578    223.23563   -3107.8542   -2673.5029   -461.11534    12229.168 
   29050     290.2799    228.10203   -3103.4011   -2671.6318   -343.01717    12228.047 
   29100    285.55317    227.96781   -3098.9271   -2674.1884   -252.00356    12226.539 
   29150     305.9304    228.64428    -3121.476   -2666.4277   -839.38645    12224.627 
   29200    300.50642    228.30267    -3110.089   -2663.1085   -518.24309    12222.079 
   29250    291.60614     228.0327     -3101.09    -2667.348    -199.8048    12219.021 
   29300    302.17847    228.37913   -3112.6376   -2663.1701   -452.72982    12215.593 
   29350    299.96493    228.31089    -3110.363   -2664.1879   -341.57558    12211.713 
   29400    295.10251    228.18414   -3106.1378   -2667.1952   -2.0752558    12207.423 
   29450    305.37062    228.44734   -3114.9113   -2660.6956   -145.74958    12202.892 
   29500    311.87892    228.66218   -3122.0728   -2658.1766   -304.97517    12198.044 
   29550    292.37319    228.07368   -3102.4559    -2667.573    270.77175    12192.824 
   29600    308.72983     228.5285   -3117.6166   -2658.4044    -69.22567    12187.465 
   29650    307.00537    228.39703   -3113.2344   -2656.5872    114.18418    12181.875 
   29700    304.77663    228.33216   -3111.0719   -2657.7397    237.93545    12176.088 
   29750    301.74869    228.27207   -3109.0691   -2660.2407    353.65225    12170.206 
   29800     306.5845    228.41541    -3113.847   -2657.8258    365.82267    12164.288 
   29850    303.08456    228.27578   -3109.1926   -2658.3772    532.85542    12158.343 
   29900     302.7214    228.36927   -3112.3091   -2662.0339      581.499    12152.426 
   29950    289.97247    227.82474    -3094.158    -2662.846    1085.3052    12146.631 
   30000      307.969    228.45987   -3115.3289   -2657.2484     606.8474    12141.129 
   30050    309.50934    228.48175   -3116.0582   -2655.6866    694.33682    12135.749 
   30100    303.93461    228.28989    -3109.663   -2657.5833    921.40705    12130.518 
   30150    320.28172    228.77283   -3125.7611   -2649.3663    483.22798    12125.508 
   30200    327.29815    229.01636   -3133.8786   -2647.0474    318.54171    12120.545 
   30250    325.20126    228.91839   -3130.6128   -2646.9006     517.7768    12115.516 
   30300    304.18738    228.26332   -3108.7773   -2656.3216    1208.5768     12110.55 
   30350    307.66237    228.35408   -3111.8027   -2654.1782    1147.7761    12105.968 
   30400    320.55247    228.78221   -3126.0738   -2649.2763    748.62746    12101.754 
   30450    326.74458      228.987   -3132.8999   -2646.8921    753.22732    12097.705 
   30500    309.64733    228.37501   -3112.5003   -2651.9233    1458.6615    12093.868 
   30550     306.8775    228.27568   -3109.1894   -2652.7324    1563.2488    12090.545 
   30600    314.39073    228.45262   -3115.0874    -2647.455    1278.9387    12087.805 
   30650    317.84292    228.69631   -3123.2103    -2650.443    1068.9846    12085.522 
   30700    331.75119    229.07978   -3135.9927   -2642.5379    725.13849    12083.558 
   30750     325.8805    228.95825   -3131.9418   -2647.2192    910.30086    12081.763 
   30800    317.48784    228.71312   -3123.7708   -2651.5317    1235.5928    12080.223 
   30850    306.48291    228.45485   -3115.1618   -2659.2917    1517.6466    12079.117 
   30900    314.47476    228.73568   -3124.5225   -2656.7652    1259.1447    12078.566 
   30950    311.73605    228.63806   -3121.2686   -2657.5849    1304.1896     12078.48 
   31000    306.69802    228.44187   -3114.7289   -2658.5388    1370.5725    12078.886 
   31050    329.10016    229.25833   -3141.9444   -2652.4328    564.90455    12079.751 
   31100    302.59201    228.43675   -3114.5584   -2664.4758    1209.2227    12080.788 
   31150    307.29563    228.59804   -3119.9348   -2662.8558    990.85377     12082.19 
   31200    306.55756    228.65737   -3121.9122   -2665.9311    875.49522     12083.93 
   31250    316.31484    229.12653   -3137.5509   -2667.0565    488.95277    12085.926 
   31300    309.04659     228.9437   -3131.4566   -2671.7732    653.98742    12087.994 
   31350    302.65762    228.79502   -3126.5008   -2676.3205    753.73301    12090.188 
   31400    310.80478     229.1314   -3137.7133   -2675.4148    426.90474    12092.563 
   31450    301.59807    228.88552   -3129.5173    -2680.913    626.62336    12094.981 
   31500    305.54084    229.01343    -3133.781   -2679.3122    454.35158    12097.506 
   31550    305.78519    229.12125   -3137.3751   -2682.5428     301.0061    12100.073 
   31600    292.74911    228.73193   -3124.3975   -2688.9554    600.52257    12102.617 
   31650    285.46362    228.58666   -3119.5555     -2694.95     736.1451    12105.276 
   31700    292.86148    228.84299   -3128.0995   -2692.4903    431.04043    12108.115 
   31750    292.74543    228.90544   -3130.1814   -2694.7447    345.65157    12111.018 
   31800     299.8843    229.19906   -3139.9685   -2693.9134    86.413311    12113.873 
   31850    291.93829    228.98561   -3132.8538   -2698.6177    168.81783    12116.597 
   31900    294.24173    229.08848   -3136.2828   -2698.6205   -47.120771    12119.211 
   31950    299.59724    229.25655    -3141.885   -2696.2568     -213.543     12121.61 
   32000    297.59038    229.17903   -3139.3011    -2696.658   -167.74573    12123.689 
   32050    287.59312     223.8332   -3127.7732   -2700.0002    104.24905    12125.462 
   32100    277.44278    223.55709   -3118.5698   -2705.8947     336.7332    12127.081 
   32150      299.274    224.25885   -3141.9616   -2696.8142   -364.86875    12128.628 
   32200     303.0431    224.50086   -3150.0287   -2699.2751   -507.37241    12129.773 
   32250    283.81592    223.83678   -3127.8926   -2705.7379     104.2982    12130.457 
   32300    295.01729    224.20794   -3140.2646   -2701.4488   -260.03915     12130.93 
   32350    295.31227    224.21856   -3140.6185   -2701.3639   -337.19352    12131.054 
   32400    289.25103    224.03567   -3134.5224   -2704.2834   -122.18363    12130.789 
   32450    292.86074    224.11013   -3137.0045   -2701.3963   -162.14783     12130.23 
   32500    281.30609     223.7685   -3125.6166   -2707.1951    197.23707    12129.388 
   32550    296.89801    224.30113   -3143.3709   -2701.7576    -153.1428    12128.392 
   32600    289.33429    224.01773   -3133.9242   -2703.5614    141.53928     12127.14 
   32650    290.20899    224.07702   -3135.9006   -2704.2367     147.9113    12125.719 
   32700    291.55989    224.14312    -3138.104   -2704.4308    32.713495    12124.141 
   32750    298.21231    224.45186   -3148.3955   -2704.8273   -256.18932    12122.341 
   32800    308.77044    224.72961   -3157.6536    -2698.381   -506.22617    12120.178 
   32850    294.19985    224.25191   -3141.7304   -2704.1304   -63.811431    12117.544 
   32900    290.66716    224.16996   -3138.9985   -2706.6532     78.15858    12114.617 
   32950    282.48541    223.93118   -3131.0392   -2710.8635    296.30377    12111.521 
   33000    303.53344    224.48358   -3149.4525   -2697.9696   -203.48137    12108.298 
   33050    312.47331    224.75989    -3158.663   -2693.8826   -331.95818    12104.723 
   33100    289.19947    223.98504   -3132.8347   -2702.6724    384.59858    12100.777 
   33150    288.71823    223.98925   -3132.9751   -2703.5286    484.25882    12096.752 
   33200    287.18027    223.91269   -3130.4231   -2703.2642    607.09539    12092.756 
   33250    302.14231    224.36056   -3145.3519   -2695.9381    131.10881    12088.824 
   33300    300.67308    224.33581   -3144.5268   -2697.2984    178.66455    12084.745 
   33350     288.4213    224.02219   -3134.0729   -2705.0681    582.09772    12080.535 
   33400    301.39909    224.39801   -3146.6003    -2698.292    246.18753    12076.365 
   33450    306.67037    224.58026   -3152.6753   -2696.5264    87.426137    12072.098 
   33500    299.72761    224.32358   -3144.1193   -2698.2972    326.70179    12067.645 
   33550    295.62007    224.22074   -3140.6913   -2700.9788    528.11432    12063.105 
   33600    291.97099     224.0649   -3135.4966   -2701.2119    762.59871    12058.619 
   33650    307.26817    224.53953   -3151.3175   -2694.2794    488.54931    12054.267 
   33700    290.58096     224.0573   -3135.2435   -2703.0263    1031.1818    12049.989 
   33750    305.69489    224.51246   -3150.4154   -2695.7174    577.95102    12045.965 
   33800    323.37064    225.09476   -3169.8252   -2688.8359    20.382937    12041.982 
   33850    306.11679    224.48862   -3149.6205    -2694.295    633.08914    12037.811 
   33900      302.361     224.3423   -3144.7433   -2695.0042    861.15028    12033.707 
   33950    318.06685    224.84254   -3161.4181   -2688.3178    523.92364    12029.765 
   34000    307.16548    224.45574   -3148.5248   -2691.6394    948.90633    12025.901 
   34050    298.87836    224.10225   -3136.7416   -2692.1827    1222.6718    12022.279 
   34100     309.0795    224.42518    -3147.506   -2687.7736    912.22296    12019.005 
   34150    298.78391    224.14003   -3138.0009   -2693.5825    1233.7827     12016.02 
   34200    305.94253    224.41337   -3147.1123    -2692.046    1141.0784    12013.415 
   34250      302.336    224.24506   -3141.5021   -2691.8002    1380.3732    12011.192 
   34300    298.83461    224.17526   -3139.1755   -2694.6816     1494.368    12009.457 
   34350    301.72385    224.23957    -3141.319   -2692.5276    1431.1676    12008.272 
   34400    297.77942    224.13904    -3137.968   -2695.0436    1582.8134    12007.629 
   34450     296.1644    224.08427   -3136.1423   -2695.6202    1607.6656    12007.592 
   34500    310.67496    224.55483   -3151.8275   -2689.7221    1043.8266    12008.149 
   34550    312.25455    224.62592   -3154.1974   -2689.7424    906.14533    12009.057 
   34600    309.62557    224.47962   -3149.3206    -2688.776    1029.6147    12010.224 
   34650    304.86204    224.32265   -3144.0884   -2690.6292    1210.7784    12011.725 
   34700    297.23786    224.09057   -3136.3524   -2694.2336    1328.1741    12013.658 
   34750    310.42215    224.46948   -3148.9827   -2687.2533    927.00793    12016.039 
   34800    304.38303    224.18408   -3139.4693   -2686.7226    1247.7112    12018.738 
   34850    302.89521    224.01636   -3133.8788   -2683.3452    1414.3614    12021.882 
   34900    308.09975    224.26563   -3142.1875   -2683.9125    1080.1122    12025.546 
   34950    308.39042    224.36277   -3145.4256   -2686.7182    906.01833    12029.592 
   35000    309.88786    224.34777   -3144.9255   -2683.9908    870.90491    12033.919 
   35050    300.59347    229.05024    -3135.008    -2687.898    1086.8422    12038.534 
   35100    303.84023    229.10183   -3136.7276   -2684.7883    1068.1915    12043.528 
   35150    297.28467    228.95043   -3131.6809   -2689.4924    1270.8817    12048.938 
   35200    293.06167    228.80715    -3126.905   -2690.9979    1302.9659    12054.847 
   35250    302.59854    229.17867    -3139.289   -2689.1966     819.3577    12061.247 
   35300     294.7228    228.93621   -3131.2071   -2692.8293    934.96066    12067.965 
   35350    292.35088    228.77847   -3125.9492   -2691.0994    928.86042    12075.013 
   35400    310.73432    229.33319   -3144.4397   -2682.2459    263.37489    12082.347 
   35450    309.55926    229.24875    -3141.625   -2681.1791     273.3652    12089.699 
   35500     298.1328    228.84034   -3128.0113   -2684.5613    605.20852    12097.039 
   35550    295.67111    228.76222   -3125.4075   -2685.6191    599.70025    12104.522 
   35600    306.94871    229.13015   -3137.6715   -2681.1086    264.03698    12112.155 
   35650    283.44218    228.40955   -3113.6517   -2692.0529    909.58487    12119.825 
   35700    297.38945    228.84755   -3128.2515   -2685.9073    338.94629    12127.763 
   35750    311.31754    229.33638   -3144.5461   -2681.4849   -180.85547    12135.732 
   35800    288.33161    228.57742   -3119.2475   -2690.3761    455.00634    12143.498 
   35850    290.34105    228.64566   -3121.5221   -2689.6618    323.59601    12151.311 
   35900    311.54092    229.37525   -3145.8416   -2682.4481   -428.76124     12159.11 
   35950    306.73961    229.19017   -3139.6723   -2683.4204   -460.75463     12166.54 
   36000    294.77566    228.81476   -3127.1586   -2688.7022    -221.5791    12173.542 
   36050    294.78735    228.72459   -3124.1528    -2685.679   -324.45293    12180.248 
   36100    305.09101    229.00946   -3133.6486   -2679.8488    -704.1226    12186.601 
   36150    298.82486    228.69083   -3123.0277   -2678.5484   -376.17904    12192.422 
   36200    296.56518    228.60806   -3120.2688   -2679.1505   -310.51587    12197.834 
   36250    293.81627    228.46798   -3115.5993   -2678.5698   -348.65826    12202.904 
   36300    289.85932    228.30913   -3110.3044   -2679.1606   -345.67714    12207.597 
   36350    292.82964    228.41107   -3113.7022   -2678.1403   -523.35169    12211.909 
   36400    307.02908    228.91985   -3130.6617   -2673.9793   -986.13462    12215.725 
   36450    291.73093     228.4175   -3113.9165   -2679.9889   -480.07042    12218.853 
   36500    295.22767    228.47945   -3115.9815   -2676.8527   -497.26109    12221.499 
   36550    297.95457    228.61092    -3120.364   -2677.1791   -536.08842     12223.69 
   36600    294.59326    228.47576   -3115.8588   -2677.6736   -445.27362     12225.39 
   36650    291.30761    228.34949   -3111.6496   -2678.3516   -352.50138    12226.649 
   36700    301.49655    228.66746   -3122.2487   -2673.7955   -625.52963    12227.481 
   36750    293.47333     228.2942   -3109.8065   -2673.2872   -371.61815    12227.797 
   36800    307.32894    228.66368   -3122.1227   -2664.9942   -707.36983    12227.657 
   36850    292.71378    228.18708   -3106.2359   -2670.8464   -279.94762    12226.973 
   36900    296.76471    228.43953   -3114.6509   -2673.2358   -424.70467    12225.874 
   36950    298.71142    228.38916   -3112.9719   -2668.6613   -391.54825    12224.337 
   37000    296.34709    228.33038   -3111.0128   -2670.2189   -279.12925     12222.36 
   37050    302.65325    223.42669    -3114.223   -2664.0492   -391.09415     12219.99 
   37100    301.10722    223.31316   -3110.4386   -2662.5644   -261.53919    12217.163 
   37150     303.1856    223.36758   -3112.2528   -2661.2871   -275.80157     12213.93 
   37200    308.47047    223.47748    -3115.916   -2657.0895   -366.10831    12210.291 
   37250    295.18919    223.07424   -3102.4748   -2663.4032    37.999402    12206.224 
   37300    297.74627    223.10622   -3103.5406   -2660.6656    50.917628    12201.903 
   37350    322.80802    223.83373   -3127.7908   -2647.6384   -517.01272    12197.314 
   37400    303.89211    223.23228   -3107.7428   -2655.7263    126.32466    12192.254 
   37450    301.82267     223.1807   -3106.0233    -2657.085    321.85358    12186.963 
   37500    309.46891    223.34572   -3111.5241   -2651.2126    157.32904    12181.565 
   37550     312.4376    223.45149   -3115.0497   -2650.3225     63.54769    12175.993 
   37600     318.2072    223.61323   -3120.4409   -2647.1318   -22.105696    12170.185 
   37650    317.46006      223.498   -3116.6001   -2644.4024    152.49079    12164.099 
   37700    311.48443    223.29849   -3109.9498   -2646.6403    448.09103    12157.825 
   37750     314.7398    223.39178   -3113.0593   -2644.9077    469.06537    12151.504 
   37800    318.32466    223.51044   -3117.0147   -2643.5309     377.8113    12145.157 
   37850    322.45725    223.67442   -3122.4806   -2642.8499    274.55357    12138.746 
   37900    317.83058    223.48737   -3116.2458   -2643.4969    528.37242    12132.229 
   37950    313.39464    223.38069   -3112.6898    -2646.539    786.18485    12125.708 
   38000      309.365    223.29332   -3109.7772   -2649.6202    1066.2027    12119.322 
   38050    310.02646    223.28336   -3109.4453   -2648.3044    1144.8555    12113.248 
   38100    318.91854     223.6208   -3120.6933   -2646.3261    884.37609    12107.495 
   38150    327.65349    223.87822   -3129.2741   -2641.9144    707.73428    12101.935 
   38200    318.18756    223.55074   -3118.3581   -2645.0782    1053.2083    12096.506 
   38250    313.27645     223.3731   -3112.4365   -2646.4615    1184.2618     12091.35 
   38300    326.13103    223.87722   -3129.2407   -2644.1455     849.0604    12086.535 
   38350    312.98162    223.50834   -3116.9445   -2651.4081    1268.3243    12081.953 
   38400    323.84887    223.89079   -3129.6929   -2647.9922    1047.8917    12077.741 
   38450     303.6369    223.25087   -3108.3625   -2656.7256    1633.1177    12073.886 
   38500    322.18115    223.75957    -3125.319    -2646.099    1113.1139    12070.568 
   38550    327.88246    223.97846   -3132.6155   -2644.9152    931.86144    12067.613 
   38600    326.78022     223.9886   -3132.9532   -2646.8924    982.63124    12064.901 
   38650    328.03403    224.08754   -3136.2514   -2648.3257    907.48997    12062.442 
   38700    315.96584    223.76732   -3125.5775   -2655.6022    1176.2626    12060.228 
   38750    313.46713    223.72798    -3124.266   -2658.0073    1241.8407    12058.383 
   38800     314.2305    223.81678   -3127.2259   -2659.8318    1224.7019    12056.953 
   38850    313.34597    223.81334   -3127.1112   -2661.0328    1206.1755    12055.928 
   38900     323.1489    224.21206    -3140.402   -2659.7425    812.75229    12055.293 
   38950    320.46919    224.24302   -3141.4341   -2664.7605    846.97684    12054.868 
   39000    305.53614    223.86765   -3128.9217   -2674.4598    1154.1279    12054.668 
   39050    317.37289    219.29003    -3143.001   -2670.9329    710.04087    12054.809 
   39100    320.50722    219.47403   -3149.1342    -2672.404    547.06544    12055.093 
   39150    316.28204     219.3767     -3145.89   -2675.4445    662.29416    12055.426 
   39200     308.0263    219.14909   -3138.3032   -2680.1374    887.24449     12055.87 
   39250    305.73792    219.07563   -3135.8544   -2681.0924    895.55241    12056.532 
   39300    312.10619    219.28042   -3142.6808   -2678.4465     565.8008    12057.423 
   39350    312.15669    219.35544   -3145.1813   -2680.8718    465.32726    12058.386 
   39400    314.68054    219.48839   -3149.6131   -2681.5496     447.4858    12059.349 
   39450    312.33068    219.51897   -3150.6324   -2686.0642    492.95577    12060.313 
   39500    303.44133    219.23822   -3141.2739   -2689.9279    687.11371    12061.306 
   39550    303.25558    219.19783   -3139.9275   -2688.8578    615.03899    12062.404 
   39600    303.97533    219.34173   -3144.7244   -2692.5841    496.77501    12063.595 
   39650    295.50334    219.05695   -3135.2317   -2695.6929    813.12072     12064.84 
   39700    292.25435    218.91826   -3130.6087   -2695.9025     933.9739    12066.292 
   39750    315.54253    219.67499    -3155.833   -2686.4874    201.82032    12067.958 
   39800    292.52568    219.03501   -3134.5002   -2699.3904    748.35049    12069.572 
   39850    298.81025    219.26949   -3142.3164   -2697.8588    459.29026    12071.301 
   39900    301.48691    219.34562   -3144.8542   -2696.4152    304.57999    12073.065 
   39950    290.21708    219.09172   -3136.3907   -2704.7148    625.60157    12074.783 
   40000    299.30011    219.36565   -3145.5217   -2700.3355    401.70401    12076.567 
   40050    293.03978    224.03894   -3134.6315    -2698.757     541.1814    12078.382 
   40100    306.56142     224.5208   -3150.6933   -2694.7064    54.221536     12080.24 
   40150    318.88113    225.00387   -3166.7956   -2692.4841   -322.68523    12081.905 
   40200    296.05073    224.19203   -3139.7344   -2699.3814    373.21753    12083.248 
   40250    308.06165    224.67768   -3155.9228   -2697.7044    4.1143535    12084.499 
   40300    298.12931    224.33267   -3144.4223   -2700.9775    355.68624    12085.564 
   40350     282.9126    223.87008   -3129.0026   -2708.1915     691.1691    12086.607 
   40400    296.69482    224.28107   -3142.7022   -2701.3912    146.53107    12087.759 
   40450    300.87006    224.43061   -3147.6871   -2700.1657   -2.4090965     12088.79 
   40500    296.80072    224.37566   -3145.8552   -2704.3867    49.641356    12089.618 
   40550    299.60627    224.45927   -3148.6423   -2703.0007    7.2447411    12090.246 
   40600    291.60124     224.1856   -3139.5199   -2705.7852    273.10894    12090.683 
   40650    297.47899     224.3776   -3145.9201   -2703.4427    28.321204    12091.024 
   40700    304.27128    224.60828   -3153.6092   -2701.0287   -240.50718    12091.157 
   40750    293.73563    224.25296   -3141.7654   -2704.8559    181.43461    12090.963 
   40800    286.74337    224.16495   -3138.8318   -2712.3228    377.42644    12090.628 
   40850    303.95987    224.66623   -3155.5409   -2703.4236   -170.41059    12090.231 
   40900    300.64305    224.55762   -3151.9206   -2704.7369   -75.393354    12089.541 
   40950    286.72123    224.06733   -3135.5776   -2709.1015    381.28419    12088.597 
   41000    289.95394    224.23798   -3141.2659   -2709.9814    281.93095    12087.602 
   41050    288.52258    229.17943   -3139.3143   -2710.1588    377.74435    12086.562 
   41100      297.569    229.45318   -3148.4393   -2705.8279    213.87368    12085.481 
   41150    275.89722    228.78516   -3126.1721   -2715.7959    960.26763     12084.35 
   41200    282.32137     228.9803   -3132.6768   -2712.7452    739.18125    12083.479 
   41250    306.93098    229.69461   -3156.4869   -2699.9503   -76.094206    12082.772 
   41300    302.12525    229.57148   -3152.3827   -2702.9943    1.6068999     12081.85 
   41350     301.3213    229.56184   -3152.0614   -2703.8688   -3.0074852      12080.7 
   41400    288.11483    229.05787   -3135.2623   -2706.7133    465.54642    12079.351 
   41450    283.32291     229.0366   -3134.5533   -2713.1319    616.46973    12078.014 
   41500    290.34834    229.21772   -3140.5908   -2708.7197    446.26816    12076.791 
   41550    297.13228    229.42067   -3147.3557    -2705.394    322.52774    12075.574 
   41600    292.36065    229.18459   -3139.4864   -2704.6221    519.13754     12074.35 
   41650    300.09048    229.47982   -3149.3275   -2702.9656    152.58363    12073.167 
   41700    303.31609     229.5028   -3150.0935   -2698.9338    21.840964    12071.835 
   41750    292.53233    229.12669   -3137.5563   -2702.4367    469.46211    12070.316 
   41800    301.03839    229.47027   -3149.0091   -2701.2373    310.95717    12068.789 
   41850    285.61587    228.83535    -3127.845    -2703.013    845.32466    12067.255 
   41900    287.09018    228.82568   -3127.5228   -2700.4979    867.17034    12065.919 
   41950    300.33141    229.24943   -3141.6475   -2694.9273    490.26056    12064.805 
   42000    287.55187    228.84426   -3128.1421   -2700.4305    824.60268    12063.788 
   42050    300.24006    224.20505   -3140.1683    -2693.584    541.76173    12062.951 
   42100    313.57902    224.60962   -3153.6541   -2687.2291    232.66896    12062.173 
   42150     317.1097    224.75069   -3158.3563   -2686.6797    206.43265    12061.279 
   42200    300.07515    224.14052   -3138.0175   -2691.6784    858.64738    12060.289 
   42250    289.88694    223.83902   -3127.9673   -2696.7824     1200.896    12059.511 
   42300    296.59179    224.01535   -3133.8449   -2692.6871    890.50184    12059.122 
   42350    307.57249    224.34014   -3144.6712   -2687.1805    447.14399    12058.972 
   42400    299.67263    224.02328   -3134.1092   -2688.3688    767.48168    12058.867 
   42450    298.93073    223.96933   -3132.3111   -2687.6743    906.60536    12058.935 
   42500     305.1022    224.12821   -3137.6071   -2683.7907    802.79362     12059.25 
   42550    308.47198    224.27292   -3142.4305   -2683.6018    694.13755     12059.77 
   42600    326.65196    224.76975   -3158.9917   -2673.1217    246.92522    12060.406 
   42650     305.6144    224.12612   -3137.5373    -2682.959    914.03786    12061.004 
   42700    303.32266    224.05932   -3135.3107   -2684.1412    1059.7502    12061.821 
   42750    306.78394    224.10165   -3136.7217   -2680.4038    940.42069    12062.983 
   42800    315.91662    224.39193   -3146.3977   -2676.4957    617.92308    12064.403 
   42850    304.38061    224.03077   -3134.3589   -2681.6158    961.17378    12065.953 
   42900    295.25251    223.66918   -3122.3061   -2683.1404    1195.3564    12067.808 
   42950    309.85463    224.10801   -3136.9336   -2676.0483    679.02722    12070.059 
   43000    313.69447    224.21989   -3140.6629   -2674.0662     539.3595    12072.463 
   43050    308.24386    223.99278   -3133.0927   -2674.6033    660.93412    12074.958 
   43100     320.8707    224.40792   -3146.9305   -2669.6597    253.39809    12077.564 
   43150    301.87757    223.75208   -3125.0692   -2676.0492    835.16507    12080.151 
   43200     314.3881    224.12753   -3137.5842   -2669.9558    479.95198    12082.924 
   43250    313.07572    224.03864   -3134.6213   -2668.9449    463.44222    12085.765 
   43300     303.1773    223.59572   -3119.8573    -2668.904    775.20901    12088.657 
   43350    308.79478    223.86689   -3128.8963   -2669.5875    587.67796    12091.736 
   43400    320.80758    224.26076   -3142.0254   -2664.8484    200.85648    12094.901 
   43450    301.97288    223.77534   -3125.8445   -2676.6827    663.54481    12098.011 
   43500    303.96602    223.77591   -3125.8635   -2673.7371    670.03547     12101.25 
   43550    305.96016    223.79983   -3126.6611   -2671.5685    662.77979    12104.652 
   43600    294.48469    223.42005   -3114.0017   -2675.9781    1002.2299    12108.226 
   43650    311.77239     223.8735   -3129.1168    -2665.379    531.81486    12112.101 
   43700    319.59862    224.11865   -3137.2883   -2661.9096    243.17437    12116.066 
   43750    312.26607    223.87725   -3129.2416   -2664.7695    414.38274    12119.978 
   43800    321.24829    224.15367   -3138.4558   -2660.6233    82.227459    12123.873 
   43850    319.94601    224.08223   -3136.0743   -2660.1789   -45.261683    12127.605 
   43900    296.74515    223.31332   -3110.4439    -2669.058    516.03742    12131.129 
   43950    304.79225    223.57652   -3119.2173   -2665.8619    290.02072     12134.68 
   44000    306.84003    223.63242   -3121.0806   -2664.6793    224.02806    12138.199 
   44050    310.87534    228.83038   -3127.6792   -2665.2757    20.084849    12141.622 
   44100    310.83258    228.89488   -3129.8292   -2667.4893     35.23786     12144.88 
[...]
   89400    305.80725    206.95288   -3231.7628   -2776.8977    1392.7245    11771.828 
   89450    296.75989    206.67422   -3222.4741   -2781.0662    1528.2771    11778.001 
   89500    287.56318     206.4068   -3213.5598   -2785.8314    1699.6987     11784.69 
   89550     308.1605    207.06083   -3235.3611   -2776.9957    1081.2497    11791.926 
   89600    294.91196    206.66581   -3222.1936   -2783.5345    1333.1253    11799.496 
   89650     299.3329    206.83744   -3227.9148   -2782.6798    1020.8262    11807.445 
   89700    305.30373    207.02762   -3234.2541    -2780.138    761.56519    11815.642 
   89750    285.64425    206.36684    -3212.228   -2787.3538    1183.9844     11823.99 
   89800    295.36482    206.68283   -3222.7609   -2783.4281    819.03702    11832.617 
   89850    279.81979    206.13043   -3204.3477   -2788.1369    1192.0307    11841.454 
   89900    292.11281    206.55648   -3218.5493   -2784.0536     708.8747    11850.569 
   89950    296.56767    206.62469   -3220.8229    -2779.701    446.65311    11859.788 
   90000     287.3558     206.3354   -3211.1802   -2783.7602    622.18191    11868.985 
   90050    299.99785    201.67102   -3222.3672   -2776.1431    235.71521    11878.188 
   90100    306.22013    201.88332    -3229.444   -2773.9648   -98.350294     11887.22 
   90150     303.8068    201.86457   -3228.8191   -2776.9295   -164.08069    11895.899 
   90200    293.86639    201.56974   -3218.9912   -2781.8872    70.156832    11904.206 
   90250    282.68318    201.09269   -3203.0895   -2782.6197    451.09064    11912.257 
   90300    283.02667    201.18833   -3206.2777   -2785.2969    347.36814    11920.217 
   90350    288.05082    201.31858   -3210.6192   -2782.1654    96.001741    11928.071 
   90400    290.03814    201.37861   -3212.6205   -2781.2107    -138.9155    11935.683 
   90450    286.97081    201.20327   -3206.7756   -2779.9283   -203.83025    11942.941 
   90500    288.78348    201.23093   -3207.6976   -2778.1541   -301.71654    11949.802 
   90550    283.00644    201.06964   -3202.3212   -2781.3706   -180.79779    11956.218 
   90600      292.957    201.34147   -3211.3822   -2775.6309   -520.72766    11962.212 
   90650    284.12831    201.01803   -3200.6009   -2777.9816    -330.0132     11967.68 
   90700    286.25025    201.02095   -3200.6982   -2774.9226   -347.95677    11972.655 
   90750    287.07966    200.97979   -3199.3264   -2772.3172   -367.42166    11977.161 
   90800    301.64591    201.37044    -3212.348   -2763.6725    -702.9169    11981.161 
   90850    285.13379    200.87109   -3195.7029   -2771.5879   -283.91974    11984.536 
   90900    287.09588    200.97167   -3199.0558   -2772.0224   -383.75629    11987.437 
   90950    281.87557    200.80802   -3193.6006    -2774.332   -320.43528    11989.869 
   91000    288.43639    200.85661   -3195.2203    -2766.193   -460.77422     11991.83 
   91050     282.5911    205.74058   -3191.3526   -2771.0198    -406.6203    11993.285 
   91100    292.49151    206.04171   -3201.3904   -2766.3315   -677.14116    11994.218 
   91150    282.99306     205.6889   -3189.6301   -2768.6994   -338.95738    11994.558 
   91200    279.96403    205.52573   -3184.1909   -2767.7656   -246.00511    11994.439 
   91250    293.80814    205.85653   -3195.2177   -2758.2003   -579.60925    11993.883 
   91300    290.89074    205.80468   -3193.4893   -2760.8114    -451.2812    11992.791 
   91350    295.04022    205.92902   -3197.6339    -2758.784   -524.09797    11991.194 
   91400    301.20979    206.12375    -3204.125   -2756.0983   -596.30398    11989.047 
   91450    296.48569    205.93117   -3197.7056   -2756.7056   -363.68444    11986.326 
   91500    285.74989    205.56092   -3185.3641   -2760.3328    25.247214    11983.142 
   91550    285.73158    205.55873   -3185.2911    -2760.287    58.856287    11979.684 
   91600    287.13267     205.5091   -3183.6367   -2756.5486    89.777315        11976 
   91650    284.07521    205.44589   -3181.5297   -2758.9894    238.44717    11972.118 
   91700    281.28297    205.27256   -3175.7519   -2757.3648    488.51413    11968.117 
   91750    304.43696    205.90802    -3196.934   -2744.1071   -12.079264    11964.064 
   91800    300.79342    205.91134   -3197.0447   -2749.6373    104.11236    11959.777 
   91850    290.59667    205.44119   -3181.3728   -2749.1323    507.52214    11955.301 
   91900    311.98191    206.00595   -3200.1984   -2736.1489    108.14779    11950.765 
   91950    300.92674    205.72304   -3190.7681   -2743.1624    442.45577    11946.065 
   92000    315.31043    206.19074   -3206.3581   -2737.3577    97.376784    11941.287 
   92050    306.85463    210.98709   -3199.5697   -2743.1467    355.71416    11936.327 
   92100    296.08959     210.6233   -3187.4433   -2747.0325    698.69797    11931.306 
   92150    288.81725    210.31058   -3177.0193   -2747.4256      1053.81    11926.414 
   92200    296.08814     210.4921   -3183.0699   -2742.6613    923.39483    11921.801 
   92250    298.34501    210.59609   -3186.5362   -2742.7706    795.09751    11917.432 
   92300    305.25485    210.79577   -3193.1925    -2739.149     663.1779    11913.223 
   92350    299.88364    210.64365   -3188.1217   -2742.0675     904.4268    11909.127 
   92400    295.40513    210.49249   -3183.0831   -2743.6904    1182.8744    11905.251 
   92450    298.93213    210.58418   -3186.1392   -2741.5003     1149.507    11901.718 
   92500    309.16249    210.83946   -3194.6486   -2734.7928     862.8073    11898.509 
   92550    314.10278    211.05747   -3201.9157   -2734.7116    748.22274    11895.491 
   92600    298.40018    210.60233   -3186.7442   -2742.8965    1279.7523    11892.632 
   92650    289.04475    210.27969   -3175.9896   -2746.0575    1672.3884    11890.183 
   92700    287.72461    210.13634   -3171.2114   -2743.2429    1809.1101    11888.345 
   92750    314.70001    210.90964   -3196.9881   -2728.8957    1126.6486    11887.148 
   92800     313.8543    210.95561   -3198.5204   -2731.6859    1146.3864    11886.302 
   92850    289.94191    210.25803   -3175.2675   -2744.0009    1775.1616    11885.811 
   92900    297.58062    210.44535   -3181.5115   -2738.8829    1518.8673    11885.938 
   92950     316.9729    211.06085   -3202.0284   -2730.5553     950.1464    11886.558 
   93000     304.6613    210.75903   -3191.9678   -2738.8072    1232.5329    11887.448 
   93050    318.14242    206.20309   -3206.7697    -2733.557    826.49146    11888.646 
   93100    308.20725    205.88422   -3196.1406   -2737.7057    1034.4575    11890.021 
   93150    309.84744    205.91415   -3197.1382   -2736.2637    990.50341    11891.622 
   93200    299.91358    205.56727   -3185.5758    -2739.477    1233.8929    11893.474 
   93250    322.61016    206.18495    -3206.165   -2726.3069      611.964    11895.613 
   93300    307.35232     205.7411   -3191.3701   -2734.2068    1031.8264    11897.841 
   93350    311.22434    205.89295   -3196.4316   -2733.5089    912.21355    11900.276 
   93400     309.8451    205.93683   -3197.8944   -2737.0233    866.21202    11902.893 
   93450     292.6061     205.3746   -3179.1533   -2743.9239    1376.3734    11905.707 
   93500    298.37517    205.60599   -3186.8664    -2743.056    1157.5403    11908.929 
   93550    305.36747    205.78814   -3192.9378   -2738.7269    896.35123    11912.459 
   93600    286.04522    205.37884   -3179.2947   -2753.8241    1329.6568    11916.206 
   93650    301.96957    205.76988   -3192.3293   -2743.1725    930.09202    11920.327 
   93700    306.68467    205.91286   -3197.0954   -2740.9252    678.61608    11924.664 
   93750     303.2226    205.88108   -3196.0361   -2745.0154    652.01912    11929.068 
   93800    299.65201    205.70864   -3190.2879   -2744.5783    712.33207    11933.533 
   93850    317.23716    206.20448   -3206.8159   -2734.9497    141.97166    11938.024 
   93900    308.11523    205.83688   -3194.5627   -2736.2647    324.31499    11942.332 
   93950    308.38157    205.88513   -3196.1709   -2737.4767    297.91668    11946.487 
   94000    304.60798      205.811      -3193.7   -2740.6187    290.61136    11950.515 
   94050    306.64279    205.91179   -3197.0596   -2740.9516    121.14118    11954.398 
   94100    311.46227    206.14735   -3204.9118   -2741.6353   -16.772401    11958.024 
   94150    291.59273    205.59639   -3186.5463   -2752.8242    493.34437    11961.394 
   94200    288.02034    205.45333   -3181.7778   -2753.3694     556.1397    11964.721 
   94250    299.32328    205.77584    -3192.528   -2747.3073    171.45574    11968.033 
   94300    299.07529    205.71781   -3190.5938   -2745.7419    27.324417    11971.179 
   94350     304.2183    205.90454    -3196.818   -2744.3163   -185.14462    11974.032 
   94400    286.00349     205.5547   -3185.1568   -2759.7483    237.67662    11976.529 
   94450    289.66763    205.54911   -3184.9703   -2754.1117     193.6891    11978.855 
   94500    294.76718    205.72131   -3190.7103   -2752.2665   -15.958589    11981.005 
   94550    292.89014    205.60877   -3186.9588   -2751.3069    67.069683    11982.877 
   94600    282.45453    205.25779   -3175.2595   -2755.1298    415.11034    11984.516 
   94650    307.46977    206.02496   -3200.8319   -2743.4939   -367.23152    11986.041 
   94700    309.62623    206.11206   -3203.7353   -2743.1898   -490.02476    11987.123 
   94750    284.06223    205.44586   -3181.5286   -2759.0076    174.33414      11987.7 
   94800    286.43497    205.49097   -3183.0323    -2756.982    8.8074818    11988.059 
   94850    295.21088    205.80656   -3193.5521   -2754.4483   -276.10086    11988.134 
   94900    292.83765    205.80905   -3193.6351   -2758.0613   -235.68536    11987.807 
   94950    282.63785    205.46882   -3182.2942   -2761.8918    49.939305    11987.112 
   95000    291.21615     205.7845   -3192.8168   -2759.6549   -184.80363    11986.145 
   95050    298.03362    200.90338   -3196.7794    -2753.477   -319.95008    11984.811 
   95100    296.70013    200.88252    -3196.084    -2754.765   -232.22663    11983.018 
   95150    286.68601    200.61026   -3187.0088   -2760.5851     33.20335    11980.822 
   95200    291.17305    200.84124    -3194.708   -2761.6101   -162.30959    11978.347 
   95250    295.92246    200.98615   -3199.5383    -2759.376   -309.29361    11975.514 
   95300    291.70922    200.89904   -3196.6347   -2762.7393    -68.97593    11972.259 
   95350    297.58883    201.11414   -3203.8048   -2761.1639   -157.86301    11968.668 
   95400    289.82386    200.83124   -3194.3746   -2763.2835    5.5539429    11964.734 
   95450    293.38976    201.04485   -3201.4949   -2765.0999   -107.03693    11960.506 
   95500    288.60777    200.98589   -3199.5297   -2770.2476    24.587118    11955.965 
   95550    295.53242    201.18263   -3206.0876   -2766.5055   -133.29359    11951.137 
   95600    292.87215    201.14924   -3204.9747   -2769.3496   -29.313093    11945.977 
   95650    295.63048    201.26673   -3208.8911   -2769.1631   -29.634704    11940.517 
   95700    297.78618    201.36423   -3212.1411   -2769.2067    -65.31354    11934.773 
   95750    297.93778     201.4028   -3213.4266   -2770.2667   -121.88799    11928.732 
   95800    307.91676    201.73606   -3224.5353   -2766.5325   -331.66267    11922.343 
   95850    288.78194    201.18203   -3206.0676   -2776.5263    268.49378    11915.564 
   95900     295.1747    201.40559   -3213.5198   -2774.4698    172.85809    11908.602 
   95950    274.93557     200.8348   -3194.4934   -2785.5476    729.62505     11901.51 
   96000    305.30406     201.7907   -3226.3568   -2772.2402      -112.46     11894.47 
   96050    304.33493    201.73645   -3224.5482   -2771.8731   -72.752644    11887.162 
   96100    295.01097    201.59391   -3219.7971   -2780.9906    283.66279    11879.542 
   96150    286.18381    201.41011   -3213.6703   -2787.9936    560.23332    11871.814 
   96200    286.36827    201.57823   -3219.2742   -2793.3231    488.10228    11864.113 
   96250     292.2944    201.68277   -3222.7591   -2787.9934    398.85289    11856.419 
   96300    287.14576     201.4586   -3215.2868   -2788.1792     636.6684    11848.704 
   96350    290.07561    201.66578   -3222.1926   -2790.7271    577.32212    11841.039 
   96400    296.44331    201.91252   -3230.4175   -2789.4805    437.18097     11833.42 
   96450    292.05459    201.77131   -3225.7103   -2791.3012    738.39416    11825.789 
   96500    275.96702    201.45563   -3215.1878   -2804.7077    1250.5772    11818.302 
   96550    295.66937    201.99989   -3233.3296   -2793.5438    789.62385    11811.156 
   96600    293.46413    201.98565   -3232.8551   -2796.3495      877.315    11804.199 
   96650    291.53442    201.95133   -3231.7109   -2798.0756    1014.4573    11797.441 
   96700    301.06755    202.20587   -3240.1955   -2792.3804    854.30238    11790.925 
   96750    285.31015    201.82189   -3227.3963   -2803.0191    1257.7817    11784.632 
   96800    290.88953    201.99328   -3233.1095   -2800.4334    1210.6413    11778.698 
   96850    289.29339    201.98359   -3232.7865   -2802.4845    1344.2295    11773.145 
   96900    293.81294    202.26322   -3242.1074   -2805.0829     1177.073    11767.997 
   96950    297.05226    202.35427   -3245.1422   -2803.2995    1057.5652    11763.188 
   97000    296.45247    202.28581   -3242.8603   -2801.9097    1114.4899    11758.669 
   97050    292.15919    202.25968   -3241.9893   -2807.4246    1206.8216    11754.438 
   97100     282.0672    202.04458   -3234.8194   -2815.2658    1484.0977    11750.572 
   97150     298.1284    202.52787   -3250.9289   -2807.4854    1122.1198    11747.172 
   97200    295.99533    202.44841   -3248.2805   -2808.0098    1211.1572    11744.092 
   97250    286.61329    202.12535   -3237.5117   -2811.1961    1532.9023    11741.364 
   97300    283.55735    202.12043   -3237.3477   -2815.5776    1595.7987    11739.148 
   97350    291.59288    202.38462   -3246.1542   -2812.4318    1398.3716    11737.459 
   97400    290.50174    202.35727   -3245.2423    -2813.143    1423.1352     11736.22 
   97450    292.79021    202.36004   -3245.3347   -2809.8314    1417.1701    11735.411 
   97500    288.32657    202.24079   -3241.3598   -2812.4959    1499.9198    11735.057 
   97550    292.71689    202.44618    -3248.206   -2812.8118    1352.6505    11735.177 
   97600    274.72961    201.91008   -3230.3359   -2821.6964    1838.3045    11735.735 
   97650    287.17092    202.20316   -3240.1052   -2812.9602    1547.2509     11736.92 
   97700    279.79286    202.00869   -3233.6229   -2817.4522    1681.7877    11738.658 
   97750    303.00975    202.72494   -3257.4981   -2806.7941    998.28904    11740.902 
   97800    285.16084     202.0941   -3236.4699   -2812.3148    1489.7049    11743.449 
   97850    287.59765    202.26999    -3242.333   -2814.5533    1415.9843    11746.427 
   97900    286.72304    202.14729   -3238.2429   -2811.7641    1466.7127    11749.848 
   97950     284.9041    202.19161   -3239.7202   -2815.9469    1351.8314    11753.724 
   98000    294.03747    202.40482   -3246.8272   -2809.4687    1060.6989    11757.982 
   98050    279.16641     202.0208   -3234.0267   -2818.7878    1354.7594    11762.519 
   98100    288.31306    202.24633   -3241.5443   -2812.7005    1096.2048    11767.415 
   98150    283.74536    202.04491   -3234.8303   -2812.7806    1117.9468    11772.606 
   98200    295.54836    202.34802    -3244.934   -2805.3283    714.78683    11778.064 
   98250    292.43363    202.29784   -3243.2612   -2808.2884    706.52734    11783.621 
   98300     281.6772    201.92215   -3230.7384    -2811.765    948.61106    11789.267 
   98350    287.44903      202.079   -3235.9667   -2808.4081    753.11403    11795.082 
   98400    284.40434    201.97106   -3232.3687   -2809.3388    773.70851    11801.019 
   98450    291.34709    202.10278   -3236.7592   -2803.4025    615.22255    11807.048 
   98500    283.17417    201.78535   -3226.1784   -2804.9783    793.11981    11813.111 
   98550    289.55406    201.89313    -3229.771   -2799.0812    602.20639    11819.278 
   98600    287.61892    201.77262   -3225.7541   -2797.9428    729.24008    11825.482 
   98650    276.64304    201.46229   -3215.4097   -2803.9241    1027.8234    11831.769 
   98700    283.34779    201.60236   -3220.0788   -2798.6204    790.54612    11838.267 
   98750    287.80175    201.68087   -3222.6955   -2794.6122    619.37933    11844.891 
   98800    304.14446    202.06697   -3235.5657   -2783.1739    256.81755    11851.528 
   98850    298.57546    201.87116   -3229.0386   -2784.9303    464.34265    11858.005 
   98900    277.75723     201.1945   -3206.4833   -2793.3405    993.55545    11864.442 
   98950    289.41713    201.38763    -3212.921    -2782.435    595.62653    11871.049 
   99000    289.96068    201.33034   -3211.0113   -2779.7167    470.84221    11877.677 
   99050    281.40444    201.05553   -3201.8511   -2783.2833    628.40572    11884.263 
   99100    293.79101    201.33236   -3211.0785   -2774.0867    226.64292    11890.852 
   99150    300.60643    201.46987   -3215.6622   -2768.5329    29.382199    11897.264 
   99200    297.41549      201.276   -3209.2001   -2766.8171    125.90657    11903.398 
   99250     296.5588    201.27075    -3209.025   -2767.9162    118.41051    11909.279 
   99300    295.81579    201.22038   -3207.3459   -2767.3423    208.61892    11914.912 
   99350    289.58987    200.94681   -3198.2272   -2767.4842    401.04176    11920.358 
   99400    283.32088    200.73167   -3191.0557   -2769.6373    473.32304    11925.697 
   99450    282.49872    200.69277   -3189.7589   -2769.5634    411.19357    11930.989 
   99500    283.88279    200.68461    -3189.487   -2767.2329    339.10298    11936.197 
   99550     312.2308     201.5891   -3219.6367   -2755.2171   -454.22201    11941.222 
   99600     304.7394    201.30876   -3210.2919   -2757.0151   -212.41093    11945.758 
   99650    295.84442    201.04267   -3201.4223   -2761.3762    24.926172    11949.876 
   99700    299.78708    201.15362   -3205.1207   -2759.2101   -198.39298    11953.676 
   99750    298.66424    201.02758   -3200.9193   -2756.6789   -186.57925    11957.076 
   99800    289.98694    200.71279   -3190.4264   -2759.0928    91.013033    11960.096 
   99850    283.17756    200.51347   -3183.7824   -2762.5772    302.16678     11962.86 
   99900    297.91653     200.9167   -3197.2232   -2754.0949   -57.919472    11965.457 
   99950    295.58665     200.7817   -3192.7235   -2753.0607    23.778336    11967.745 
  100000    293.11769    200.66727    -3188.909   -2752.9187    119.64043    11969.746 
Loop time of 27.0097 on 1 procs for 100000 steps with 500 atoms

Performance: 319.886 ns/day, 0.075 hours/ns, 3702.379 timesteps/s
99.8% CPU use with 1 MPI tasks x 1 OpenMP threads

MPI task timing breakdown:
Section |  min time  |  avg time  |  max time  |%varavg| %total
---------------------------------------------------------------
Pair    | 22.142     | 22.142     | 22.142     |   0.0 | 81.98
Bond    | 0.0069335  | 0.0069335  | 0.0069335  |   0.0 |  0.03
Neigh   | 0.50478    | 0.50478    | 0.50478    |   0.0 |  1.87
Comm    | 0.77544    | 0.77544    | 0.77544    |   0.0 |  2.87
Output  | 0.018223   | 0.018223   | 0.018223   |   0.0 |  0.07
Modify  | 2.7421     | 2.7421     | 2.7421     |   0.0 | 10.15
Other   |            | 0.8204     |            |       |  3.04

Nlocal:    500 ave 500 max 500 min
Histogram: 1 0 0 0 0 0 0 0 0 0
Nghost:    1594 ave 1594 max 1594 min
Histogram: 1 0 0 0 0 0 0 0 0 0
Neighs:    14624 ave 14624 max 14624 min
Histogram: 1 0 0 0 0 0 0 0 0 0

Total # of neighbors = 14624
Ave neighs/atom = 29.248
Ave special neighs/atom = 0
Neighbor list builds = 605
Dangerous builds = 0

write_data      ${walker}/final_restart_file
write_data      6/final_restart_file

quit
