LAMMPS (19 May 2017)
Processor partition = 9
  using 1 OpenMP thread(s) per MPI task
# gREM variables
variable        lambda world 1000 1005 1010 1015 1020 1025 1030 1035 1040 1045 1050 1055 1060 1065 1070 1075
variable        walker world 0 1 2 3 4 5 6 7 8 9 10 11 12 13 14 15
variable        replica world 1 0 3 9 12 2 5 13 10 4 7 14 6 15 8 11

variable        T0 equal 300.0
variable        press equal 0.0

units           real
atom_style      full
pair_style      lj/cut 5.0

# LJ particles
read_data       ${walker}/restart_file
read_data       9/restart_file
  orthogonal box = (1.05831 1.05831 1.05831) to (23.9417 23.9417 23.9417)
  1 by 1 by 1 MPI processor grid
  reading atoms ...
  500 atoms
  reading velocities ...
  500 velocities
  0 = max # of 1-2 neighbors
  0 = max # of 1-3 neighbors
  0 = max # of 1-4 neighbors
  1 = max # of special neighbors

#dump            dump all xyz 1000 ${walker}/dump.xyz

fix             fxnpt all npt temp ${T0} ${T0} 1000.0 iso ${press} ${press} 10000.0
fix             fxnpt all npt temp 300 ${T0} 1000.0 iso ${press} ${press} 10000.0
fix             fxnpt all npt temp 300 300 1000.0 iso ${press} ${press} 10000.0
fix             fxnpt all npt temp 300 300 1000.0 iso 0 ${press} 10000.0
fix             fxnpt all npt temp 300 300 1000.0 iso 0 0 10000.0
fix             fxgREM all grem ${lambda} -.03 -30000 fxnpt
fix             fxgREM all grem 1045 -.03 -30000 fxnpt
thermo_modify   press fxgREM_press

thermo          50
thermo_style    custom step temp f_fxgREM pe etotal press vol
WARNING: New thermo_style command, previous thermo_modify settings will be lost (../output.cpp:705)
timestep        1.0

temper/grem     100000 1000 ${lambda} fxgREM fxnpt 10294 98392 ${walker}
temper/grem     100000 1000 1045 fxgREM fxnpt 10294 98392 ${walker}
temper/grem     100000 1000 1045 fxgREM fxnpt 10294 98392 9
Neighbor list info ...
  update every 1 steps, delay 10 steps, check yes
  max neighbors/atom: 2000, page size: 100000
  master list distance cutoff = 7
  ghost atom cutoff = 7
  binsize = 3.5, bins = 7 7 7
  1 neighbor lists, perpetual/occasional/extra = 1 0 0
  (1) pair lj/cut, perpetual
      attributes: half, newton on
      pair build: half/bin/newton
      stencil: half/bin/3d/newton
      bin: standard
Per MPI rank memory allocation (min/avg/max) = 5.723 | 5.723 | 5.723 Mbytes
Step Temp f_fxgREM PotEng TotEng Press Volume 
       0    289.18432    240.38829   -3179.6097   -2749.4699    184.17125    11982.849 
      50     276.1266    239.95194   -3165.0645   -2754.3471    599.91148    11982.854 
     100    279.27714    239.99626   -3166.5419   -2751.1383    527.56504    11982.986 
     150    281.38022    240.07444   -3169.1479   -2750.6161      453.232    11983.243 
     200    290.56255    240.38668   -3179.5561   -2747.3663    202.13718    11983.554 
     250    273.49182    239.77103   -3159.0343    -2752.236    755.72821    11983.848 
     300    278.25947    239.92766   -3164.2552   -2750.3653    644.84297    11984.333 
     350    279.68131    240.07481   -3169.1602   -2753.1555    615.61664    11984.999 
     400    269.76927    239.62123    -3154.041   -2752.7796    951.28341    11985.859 
     450    269.20173    239.52777   -3150.9256   -2750.5084    1023.3282     11987.04 
     500    280.55983    239.87817   -3162.6058   -2745.2943    650.58369    11988.576 
     550    293.09847    240.33564   -3177.8547   -2741.8929    184.53514    11990.287 
     600     268.8194     239.4196     -3147.32   -2747.4716    1047.4946    11992.002 
     650    267.83306    239.33702   -3144.5673   -2746.1859    1105.6768    11994.071 
     700    283.50172    239.89953   -3163.3176   -2741.6303    528.54339    11996.524 
     750     278.1452     239.5912     -3153.04   -2739.3201     784.2917    11999.141 
     800    285.55139    239.75527   -3158.5089   -2733.7728    699.80862    12001.981 
     850    273.96904    239.27346   -3142.4488   -2734.9406    1156.0163    12005.063 
     900    278.84479    239.44538   -3148.1794    -2733.419    968.82393    12008.549 
     950    282.78709    239.50744    -3150.248   -2729.6236    808.41571      12012.4 
    1000     298.1891     239.9328   -3164.4266   -2720.8929    437.03317    12016.484 
    1050    281.33782    234.23056   -3141.0186   -2722.5499    1088.8496    12020.678 
    1100    290.61765    234.58306   -3152.7686   -2720.4969    811.84818    12025.213 
    1150    293.39205    234.64946   -3154.9819   -2718.5834    663.33601    12030.001 
    1200    278.40891    234.07613   -3135.8709   -2721.7588    1067.5353    12034.993 
    1250    290.75175    234.49997   -3149.9991   -2717.5279    558.60071    12040.328 
    1300    292.34308    234.58163   -3152.7208   -2717.8827    417.10791    12045.786 
    1350    270.46064    233.78479   -3126.1596   -2723.8699    1129.8684    12051.347 
    1400    289.08439    234.30415   -3143.4718   -2713.4807    540.85679    12057.264 
    1450    300.83775    234.60328   -3153.4426   -2705.9693    87.319175    12063.302 
    1500    300.97464    234.55911   -3151.9703   -2704.2933     99.41168    12069.215 
    1550    296.29244    234.37482   -3145.8275    -2705.115    237.26671    12074.995 
    1600    298.11372    234.43155   -3147.7183   -2704.2968    114.18077    12080.698 
    1650    294.82688    234.29239   -3143.0798   -2704.5472    258.48295    12086.285 
    1700    274.93663    233.57432   -3119.1439   -2710.1965    946.32384    12091.838 
    1750    282.87633     233.7819   -3126.0633   -2705.3062    615.52634    12097.666 
    1800    299.60648    234.27458    -3142.486   -2696.8441    32.082942     12103.63 
    1850    285.95915    233.88517   -3129.5057   -2704.1631    395.58246    12109.466 
    1900    286.98755    233.79394   -3126.4646   -2699.5924    338.05483    12115.314 
    1950     289.1606     233.9695   -3132.3166   -2702.2121    165.02383    12121.158 
    2000    291.74722    233.98871    -3132.957   -2699.0052     29.26495    12126.896 
    2050    285.16264    233.70476   -3123.4919    -2699.334    132.68734    12132.489 
    2100    299.02493    234.08662   -3136.2207   -2691.4438   -348.41154    12137.939 
    2150    298.12408    233.96564    -3132.188   -2688.7511   -301.70823    12143.029 
    2200    275.00671    233.15886   -3105.2954   -2696.2437    433.53317    12147.798 
    2250    294.37998    233.82641   -3127.5471   -2689.6792   -239.09978    12152.537 
    2300    297.58897    233.97208   -3132.4028   -2689.7618   -425.18074    12156.998 
    2350    299.69771    234.01337   -3133.7791   -2688.0015   -381.68292     12161.03 
    2400    288.48752    233.53754   -3117.9179   -2688.8146    46.950181    12164.695 
    2450    287.26449    233.42883   -3114.2944   -2687.0103    41.538526    12168.176 
    2500    297.18195    233.68539   -3122.8463   -2680.8106   -185.28668    12171.473 
    2550    298.54338    233.76653   -3125.5509   -2681.4902   -179.43527     12174.49 
    2600    292.57928      233.534      -3117.8   -2682.6105   -72.680389    12177.212 
    2650    285.05935    233.28405   -3109.4682    -2685.464    122.26723    12179.692 
    2700    283.64737    233.17875   -3105.9583   -2684.0543    168.90636    12182.068 
    2750    291.30228    233.45526   -3115.1755   -2681.8854   -116.87715    12184.333 
    2800    296.56379    233.51404   -3117.1345   -2676.0184   -264.61171    12186.339 
    2850    288.02221     233.2747   -3109.1568   -2680.7455   -43.352502    12188.037 
    2900    289.85411    233.23381   -3107.7935   -2676.6575    5.9649414    12189.504 
    2950    297.12448    233.47498   -3115.8326   -2673.8825   -190.07033     12190.77 
    3000    301.75076    233.50961    -3116.987   -2668.1556   -276.61817    12191.738 
    3050    306.45915    238.68105   -3122.7016   -2666.8669   -324.89668    12192.356 
    3100    289.82352    238.05422   -3101.8075    -2670.717    245.71577    12192.648 
    3150    298.32033    238.34346   -3111.4487   -2667.7198   -36.556835    12192.848 
    3200    297.27463    238.31271   -3110.4236   -2668.2501    75.177619    12192.878 
    3250     292.8934     238.0867   -3102.8901   -2667.2333    333.93146    12192.756 
    3300    306.83772    238.49419   -3116.4729    -2660.075   -163.30428      12192.6 
    3350    301.35057    238.25681   -3108.5603   -2660.3242    36.944555    12192.207 
    3400    286.31077    237.70827   -3090.2758   -2664.4102    599.32225    12191.668 
    3450    289.06979    237.80841   -3093.6136   -2663.6442    575.09347    12191.248 
    3500    292.57354    237.91016   -3097.0052   -2661.8242     469.2396    12190.961 
    3550    295.34855    237.94179   -3098.0597   -2658.7511    415.12655    12190.748 
    3600    305.26279    238.33716   -3111.2385   -2657.1833    146.46654    12190.571 
    3650    308.98199    238.41057   -3113.6857   -2654.0984    66.769962    12190.313 
    3700    308.58165    238.41548   -3113.8494   -2654.8575    128.81746    12189.885 
    3750    293.82902    237.85239   -3095.0797   -2658.0313    687.17833    12189.368 
    3800    282.77542     237.4731   -3082.4367   -2661.8297    1052.3456     12189.04 
    3850    302.92743    238.08514    -3102.838   -2652.2564    409.91669    12189.052 
    3900    308.37684    238.22384   -3107.4614   -2648.7742    290.23839     12189.13 
    3950    310.27998    238.28689    -3109.563    -2648.045     316.7511    12189.185 
    4000    307.23465    238.05023   -3101.6744   -2644.6861    394.41708    12189.245 
    4050    322.93424     233.5834   -3119.4465   -2639.1063   -165.93968    12189.289 
    4100    330.67733    233.82025   -3127.3415    -2635.484   -338.89099    12189.052 
    4150    290.77548    232.37914   -3079.3047   -2646.7982    957.17031     12188.51 
    4200    295.90948    232.71252   -3090.4172   -2650.2742    800.23738    12188.191 
    4250    294.38551    232.54257   -3084.7522    -2646.876    863.25658    12188.141 
    4300    310.52083    233.04266    -3101.422   -2639.5458      307.433    12188.319 
    4350    319.03365    233.49751   -3116.5836   -2642.0452   -62.846348    12188.459 
    4400    314.04797    233.28212   -3109.4039   -2642.2813    171.84614     12188.39 
    4450    311.77792    233.26652    -3108.884    -2645.138    204.65784    12188.186 
    4500    304.75863    232.93861   -3097.9536   -2644.6483    418.78119    12187.883 
    4550    304.55563    232.87194   -3095.7312   -2642.7278    474.44238    12187.591 
    4600    302.98929    232.86109   -3095.3698   -2644.6962    548.98077    12187.359 
    4650    300.65424    232.77686   -3092.5621   -2645.3617    731.28262     12187.23 
    4700    316.30498    233.24148   -3108.0494   -2637.5697    283.45519    12187.263 
    4750    319.84952     233.3404   -3111.3468   -2635.5948     148.1114    12187.262 
    4800      303.459     232.8103   -3093.6767   -2642.3044    705.17682    12187.171 
    4850    295.67058    232.58377   -3086.1256    -2646.338    970.04762    12187.225 
    4900    308.61703    233.06705    -3102.235   -2643.1906    527.51371     12187.57 
    4950    311.34693    233.09958   -3103.3194   -2640.2144    434.02476    12188.016 
    5000    296.11897     232.6259   -3087.5301   -2647.0756    784.51674    12188.505 
    5050    310.28211      238.122   -3104.0668   -2642.5457    360.18141    12189.175 
    5100    292.77672    237.51851   -3083.9504   -2648.4672    966.36207    12189.932 
    5150    308.26863    238.04262   -3101.4205   -2642.8943    551.34907    12190.964 
    5200    310.21372    238.15228   -3105.0761   -2643.6567    388.55037    12192.126 
    5250    326.26652    238.84836   -3128.2787    -2642.982   -211.48941    12193.274 
    5300    316.61244    238.50315   -3116.7718   -2645.8348    80.393915    12194.177 
    5350    305.92988    238.17645   -3105.8817   -2650.8342      373.375    12194.925 
    5400    306.30333    238.07763   -3102.5878   -2646.9848    392.42983     12195.68 
    5450    305.99033    238.16587   -3105.5289   -2650.3915    316.02327    12196.457 
    5500    305.16432    238.22617   -3107.5391   -2653.6303    232.87498    12197.221 
    5550    293.05997    237.71861   -3090.6204   -2654.7159    566.16383    12197.969 
    5600    293.56584    237.73225   -3091.0751   -2654.4181     446.5319     12198.82 
    5650    305.63463    238.21131   -3107.0436   -2652.4352   -64.730744    12199.711 
    5700    309.52339    238.33728   -3111.2426     -2650.85   -157.85053    12200.402 
    5750    291.90751    237.71568   -3090.5226   -2656.3323    429.40815    12200.854 
    5800    298.27393    237.99445   -3099.8151   -2656.1552    181.97156    12201.305 
    5850    303.79401    238.29334   -3109.7779   -2657.9074    20.305695    12201.682 
    5900    286.81616    237.81661   -3093.8871   -2667.2698     556.4419    12201.922 
    5950    286.67116    237.79621   -3093.2072   -2666.8055    504.36678    12202.255 
    6000    299.13019    238.27844   -3109.2813   -2664.3478      42.0536    12202.658 
    6050    286.74603    242.83028   -3094.3428   -2667.8298    460.03834    12202.963 
    6100    293.80555    243.09242   -3103.0805    -2666.067    268.48593    12203.313 
    6150    290.50412    243.00901   -3100.3005   -2668.1976    284.92516    12203.656 
    6200    301.33703    243.42937   -3114.3123   -2666.0963   -93.643461    12203.957 
    6250    303.31904    243.55637   -3118.5457   -2667.3816   -167.78207    12204.065 
    6300    284.82965    242.92711   -3097.5702   -2673.9077    350.89652    12203.954 
    6350    294.54284     243.2937     -3109.79   -2671.6798   -99.246314    12203.805 
    6400    303.02994    243.61896    -3120.632   -2669.8979   -470.91636    12203.423 
    6450    274.55214    242.70014   -3090.0047   -2681.6292    390.73408     12202.71 
    6500    287.25898    243.15673   -3105.2243   -2677.9483   -21.558406    12201.972 
    6550    297.29858    243.55448   -3118.4828   -2676.2737   -409.21014    12201.056 
    6600    288.67218    243.34757   -3111.5856   -2682.2076   -230.86008    12199.783 
    6650    296.72641    243.76813   -3125.6044   -2684.2463   -464.21141    12198.178 
    6700     273.8026    242.95055   -3098.3515   -2691.0909    316.24218    12196.226 
    6750     282.7452    243.26602   -3108.8673   -2688.3053    7.1145469    12194.213 
    6800    286.84489    243.48856   -3116.2855   -2689.6254   -296.27367    12192.047 
    6850    297.64182    243.92992   -3130.9974   -2688.2777   -701.16353    12189.533 
    6900    298.56877    243.91257    -3130.419   -2686.3206   -640.85176    12186.484 
    6950    282.88911    243.33968   -3111.3225   -2690.5464    11.064805    12182.925 
    7000    274.83939    243.07775   -3102.5917   -2693.7889    355.12674    12179.195 
    7050    276.29825     248.2011   -3106.7032   -2695.7305    316.89138    12175.488 
    7100    276.27854    248.20344   -3106.7812   -2695.8378    364.50957    12171.799 
    7150    282.31048    248.48494   -3116.1647   -2696.2492      173.862    12168.141 
    7200    280.91254    248.47003   -3115.6675   -2697.8314    238.03295    12164.432 
    7250    275.38555     248.3066   -3110.2199   -2700.6048     430.8664    12160.705 
    7300    275.63137    248.31746   -3110.5819   -2700.6012    449.12431    12157.049 
    7350    288.52844    248.79632   -3126.5441   -2697.3799    24.793699     12153.46 
    7400    286.13607    248.72029   -3124.0097    -2698.404    58.140045     12149.76 
    7450    278.75443    248.47646    -3115.882   -2701.2559    265.38686    12145.945 
    7500    282.18138    248.46723   -3115.5744    -2695.851    194.79948    12142.107 
    7550    282.05472    248.48102   -3116.0339   -2696.4989    229.18434    12138.225 
    7600     282.1719    248.55534   -3118.5114   -2698.8021    261.17311    12134.312 
    7650    290.96896    248.77385   -3125.7949   -2693.0006     79.21481    12130.347 
    7700      285.977    248.60944   -3120.3147   -2694.9456    356.83538    12126.286 
    7750    275.95575    248.17239   -3105.7464   -2695.2832    816.76421    12122.281 
    7800    281.76178    248.33792   -3111.2639   -2692.1647    667.62429    12118.523 
    7850     277.3234    248.19033   -3106.3444   -2693.8469    787.38625    12114.994 
    7900    296.77574    248.91454   -3130.4847   -2689.0533    202.32616    12111.669 
    7950    298.12189    248.91997   -3130.6657    -2687.232    257.72131    12108.325 
    8000     293.1187    248.73279   -3124.4262   -2688.4344    593.33685    12104.968 
    8050     290.6798    243.60213    -3120.071   -2687.7069    829.87585    12101.751 
    8100    285.40799    243.41376   -3113.7919   -2689.2691    1101.0757    12098.815 
    8150    295.25981    243.63893   -3121.2975   -2682.1209    939.17925    12096.276 
    8200    303.58223    243.74161   -3124.7203   -2673.1648    778.44235    12094.069 
    8250    302.20848    243.68525   -3122.8417   -2673.3295    885.66447    12092.115 
    8300    306.45215    243.74737   -3124.9124   -2669.0881    812.43067    12090.455 
    8350    295.87642     243.3026   -3110.0868   -2669.9931    1268.6075    12089.073 
    8400    280.70521    242.72119   -3090.7062   -2673.1785    1911.6351    12088.206 
    8450    307.75469     243.6834     -3122.78   -2665.0182    1042.2985    12088.114 
    8500    310.97576    243.80273   -3126.7576   -2664.2047    901.40114    12088.461 
    8550    298.90274    243.31324   -3110.4413   -2665.8461    1371.8275    12089.152 
    8600    299.69358    243.32148   -3110.7159   -2664.9444    1406.7507    12090.392 
    8650    313.27971    243.62342   -3120.7807   -2654.8009    1040.9978    12092.209 
    8700    320.36693    243.66072   -3122.0241   -2645.5026    911.13295    12094.434 
    8750    311.83702    243.42183   -3114.0612   -2650.2272    1242.9002    12097.009 
    8800    312.79552    243.45265   -3115.0882   -2649.8286    1287.5379    12100.066 
    8850    303.27886    243.02093   -3100.6977   -2649.5934    1551.0675    12103.682 
    8900    307.89655    243.10532   -3103.5107    -2645.538    1370.8944    12107.944 
    8950    298.79162    242.75749   -3091.9165   -2647.4866    1675.5561    12112.812 
    9000    315.50621    243.38179   -3112.7264   -2643.4348    1109.0582    12118.376 
    9050    320.92725    238.46245   -3115.4149   -2638.0599     869.7214    12124.404 
    9100    324.60144    238.57708    -3119.236   -2636.4159    774.57573    12130.721 
    9150    311.39933    238.09884   -3103.2947   -2640.1118    1086.8354     12137.33 
    9200    310.59506    238.03592   -3101.1973   -2639.2107    958.66381    12144.344 
    9250    303.23179    237.79814   -3093.2713    -2642.237    1127.6132    12151.719 
    9300    301.17364    237.65555   -3088.5183   -2640.5453     1165.578    12159.546 
    9350    304.51023    237.75452   -3091.8174   -2638.8815    945.16349    12167.857 
    9400    315.11695    238.09534   -3103.1779   -2634.4654    504.85706    12176.513 
    9450    315.79708    238.08188   -3102.7293    -2633.005    374.24951    12185.311 
    9500    304.10601    237.78341   -3092.7804   -2640.4458    652.84045    12194.167 
    9550    301.29221    237.61573   -3087.1909   -2639.0415    720.08996    12203.214 
    9600    301.18727    237.65779   -3088.5929   -2640.5997    649.35434    12212.511 
    9650    313.30438    238.06474   -3102.1579   -2636.1414    156.55674    12221.979 
    9700    306.15141    237.86152   -3095.3841   -2640.0071    216.61996    12231.415 
    9750    296.61612    237.43778   -3081.2595   -2640.0655    470.79626    12240.826 
    9800    288.42222    237.20442   -3073.4806   -2644.4744    640.85671    12250.337 
    9850    299.55487    237.62765   -3087.5883   -2642.0232    145.26636    12260.031 
    9900    313.30379    238.04241   -3101.4135   -2635.3979   -485.07988    12269.656 
    9950    306.51027     237.7987     -3093.29   -2637.3792   -343.60505    12278.876 
   10000    294.97313    237.41378   -3080.4594   -2641.7092   -7.5205903    12287.763 
   10050    294.68889    242.44948   -3081.6492   -2643.3218   -151.45969    12296.485 
   10100    294.62126    242.50341   -3083.4471   -2645.2203   -306.58883    12304.981 
   10150    288.16832    242.23523   -3074.5076    -2645.879   -126.29343    12313.183 
   10200    296.88911    242.42589   -3080.8631   -2639.2631   -357.04742    12321.138 
   10250    290.82275    242.22809   -3074.2695   -2641.6927   -341.35988    12328.772 
   10300    294.18385    242.39639   -3079.8798   -2642.3036   -578.40526    12336.038 
   10350     289.8547     242.2746   -3075.8199    -2644.683   -521.25596    12342.859 
   10400    287.03893    242.09916   -3069.9721   -2643.0235   -456.00211     12349.25 
   10450    287.09503    242.06067   -3068.6889   -2641.6568   -515.37633    12355.236 
   10500    286.57897    242.04257   -3068.0856   -2641.8211   -607.37007    12360.786 
   10550    288.54934    242.10371   -3070.1238   -2640.9285   -743.26024    12365.847 
   10600    284.30599    241.88744   -3062.9145   -2640.0309   -661.89234    12370.361 
   10650    294.63584    242.26834   -3075.6113   -2637.3628   -1079.3461     12374.29 
   10700     277.9759    241.68797   -3056.2655   -2642.7974   -678.61855    12377.504 
   10750    291.63409    242.16043   -3072.0143   -2638.2307   -1133.7847    12380.127 
   10800    297.28727    242.27855   -3075.9517   -2633.7595   -1280.4438    12381.971 
   10850    287.61645    241.87214   -3062.4046   -2634.5969   -829.84452    12382.943 
   10900    288.81696    241.87136   -3062.3787   -2632.7853   -699.86713    12383.249 
   10950    288.47602    241.93868   -3064.6227   -2635.5365   -717.76107    12382.989 
   11000    297.65198    242.25906   -3075.3019   -2632.5672   -1010.6238    12382.131 
   11050     281.4699    241.65346   -3055.1153   -2636.4501   -426.19869    12380.592 
   11100    281.52439    241.57833   -3052.6109   -2633.8647   -320.09125    12378.591 
   11150    293.21064    241.91761   -3063.9205   -2627.7919   -655.89262    12376.222 
   11200    296.91121    241.99332   -3066.4441   -2624.8112   -635.37235    12373.343 
   11250    293.81027    241.89823   -3063.2743   -2626.2538   -390.65281    12369.929 
   11300    288.90277    241.66954   -3055.6514   -2625.9305    -207.2262    12366.114 
   11350    297.12202    241.95414    -3065.138   -2623.1915   -449.48821    12361.973 
   11400    297.50347    241.90816   -3063.6052   -2621.0914   -372.51812    12357.422 
   11450    295.05834    241.72433   -3057.4777   -2618.6008    -126.8759    12352.477 
   11500    299.91693    241.91717   -3063.9058   -2617.8021   -250.35702     12347.26 
   11550    309.62616    242.20936   -3073.6454   -2613.0999   -524.88319    12341.707 
   11600    310.32622    242.22678   -3074.2259   -2612.6392   -459.59963    12335.679 
   11650    319.46161    242.48394    -3082.798   -2607.6231   -575.96625    12329.175 
   11700    320.40127    242.54466    -3084.822   -2608.2493   -533.67608    12322.147 
   11750    300.69947    241.79946    -3059.982   -2612.7143    156.28221     12314.67 
   11800    312.48525    242.19824   -3073.2748   -2608.4767   -73.513134    12307.006 
   11850      313.387    242.25492    -3075.164   -2609.0246    17.724963    12299.137 
   11900    309.19243    242.16267   -3072.0891   -2612.1888    295.22429    12291.071 
   11950    312.97872    242.15921   -3071.9738   -2606.4417    367.75805    12282.943 
   12000    318.24044    242.31072   -3077.0239   -2603.6654    332.04276    12274.817 
   12050    314.37126    242.09311   -3069.7704    -2602.167    525.02143    12266.687 
   12100    313.33884    242.13876    -3071.292   -2605.2242    600.01884    12258.642 
   12150    305.12551    241.95925   -3065.3083   -2611.4573    922.93627    12250.752 
   12200    313.14589    242.16897    -3072.299   -2606.5182    854.08732    12243.129 
   12250    308.38759    241.91224   -3063.7415   -2605.0383    1032.2547    12235.804 
   12300    325.46085    242.60351   -3086.7836   -2602.6853     493.5552    12228.782 
   12350    314.47476    242.16498   -3072.1662   -2604.4088    970.68496    12221.894 
   12400    315.83755    242.17062   -3072.3539   -2602.5695     1078.224    12215.305 
   12450    318.20924    242.39663   -3079.8878   -2606.5757     1010.202    12209.093 
   12500    317.20415    242.43377   -3081.1256   -2609.3084    1113.3509    12203.243 
   12550    317.49628    242.43309    -3081.103   -2608.8513    1205.3528    12197.809 
   12600    318.70425    242.40979   -3080.3264   -2606.2779    1181.0811    12192.841 
   12650    326.66657    242.76063    -3092.021   -2606.1292    935.37847    12188.292 
   12700     322.9371    242.62736   -3087.5787   -2607.2342    1104.7558     12184.08 
   12750    311.23593    242.20889   -3073.6297   -2610.6899    1419.7517    12180.287 
   12800    326.01637    242.81518   -3093.8394   -2608.9147    957.98071    12177.029 
   12850    325.78538    242.80236    -3093.412   -2608.8309    1027.6484    12174.139 
   12900    315.67882    242.39306   -3079.7685   -2610.2202    1258.5304    12171.616 
   12950    317.58748    242.55318    -3085.106   -2612.7187    1077.1248    12169.555 
   13000    311.18249    242.26907   -3075.6358   -2612.7754    1331.0613    12167.931 
   13050    315.08723    242.42087   -3080.6956   -2612.0272    1261.6959    12166.815 
   13100    327.86534    242.91149   -3097.0496   -2609.3748    875.93052    12166.176 
   13150    322.27889    242.77098    -3092.366   -2613.0006    1041.2544    12165.853 
   13200     312.0404     242.5411   -3084.7034   -2620.5669    1306.5518    12165.921 
   13250    309.69905    242.50948   -3083.6492   -2622.9953     1263.158    12166.504 
   13300    301.98529    242.36496    -3078.832   -2629.6518    1289.7822    12167.595 
   13350    319.63252    242.99563   -3099.8544   -2624.4253    616.67838    12169.182 
   13400    311.05101    242.64916   -3088.3053   -2625.6405    894.62953    12170.987 
   13450    299.15523    242.35373   -3078.4578   -2633.4871    1228.3113    12173.109 
   13500    304.59955     242.6411   -3088.0368    -2634.968    979.82555     12175.71 
   13550    299.49313    242.39911   -3079.9702   -2634.4969    1096.2686    12178.705 
   13600    311.32079    242.82492   -3094.1641    -2631.098    672.64185     12182.09 
   13650    310.06673     242.8286   -3094.2867   -2633.0859    603.84215    12185.707 
   13700    316.05197    243.06142   -3102.0474   -2631.9441    361.44495    12189.478 
   13750    307.95832    242.76119   -3092.0397   -2633.9751    513.94262    12193.308 
   13800    314.07857     243.0209   -3100.6965   -2633.5284    319.51976    12197.222 
   13850    303.69987    242.76233   -3092.0777   -2640.3472    596.91497    12201.205 
   13900    309.92808    242.93682   -3097.8938   -2636.8993    397.89982    12205.316 
   13950    303.08522    242.65026    -3088.342   -2637.5257     614.0063    12209.505 
   14000    294.49621    242.35434   -3078.4779   -2640.4371    842.35718    12213.883 
   14050    305.14344    242.77763   -3092.5876   -2638.7098    360.57044    12218.525 
   14100    314.51712    243.19791   -3106.5971   -2638.7767   0.14120557    12223.221 
   14150    300.72979    242.57292   -3085.7638   -2638.4511    440.92448    12227.804 
   14200    279.38572    241.89278   -3063.0927   -2647.5276     1071.612    12232.486 
   14250    291.02811    242.33815   -3077.9385   -2645.0562     709.4537    12237.547 
   14300    307.32873    242.97733   -3099.2443   -2642.1161   -36.769885    12242.842 
   14350    309.77513    243.02123   -3100.7075   -2639.9405   -337.78431    12247.997 
   14400    292.05765    242.43666   -3081.2219   -2646.8082     123.5894     12252.83 
   14450      282.098    242.07229   -3069.0762   -2649.4768    395.45453    12257.568 
   14500    299.51626    242.71125   -3090.3751   -2644.8674   -262.82472     12262.33 
   14550    302.72089    242.80501   -3093.5002   -2643.2258   -379.46289    12266.837 
   14600    296.21964    242.61976   -3087.3254   -2646.7211   -115.70248        12271 
   14650     285.0092    242.16595   -3072.1982   -2648.2686    209.98867     12274.97 
   14700    299.49959    242.67176   -3089.0586   -2643.5757   -320.30397    12278.852 
   14750    289.68983     242.2925   -3076.4168   -2645.5251   -82.597785    12282.462 
   14800    300.47142    242.63899   -3087.9663   -2641.0378   -435.02048    12285.835 
   14850    309.94163     242.9659   -3098.8634   -2637.8487   -774.63045    12288.813 
   14900    291.90094    242.39151   -3079.7169   -2645.5364   -271.01068    12291.252 
   14950    285.24644    242.16106   -3072.0354    -2647.753    0.6714157    12293.363 
   15000    290.78484    242.28442   -3076.1473   -2643.6269   -166.58482    12295.302 
   15050     292.6151    242.33572   -3077.8574   -2642.6146   -241.79528    12296.998 
   15100    292.77812    242.42839   -3080.9464   -2645.4612   -294.16033    12298.395 
   15150    304.32787    242.86771   -3095.5904   -2642.9258   -721.37182    12299.441 
   15200    295.43353    242.44325   -3081.4417   -2642.0067   -407.46129    12299.961 
   15250     282.8491    242.04784   -3068.2612   -2647.5446    -49.30289     12300.07 
   15300    299.09462    242.60216   -3086.7388   -2641.8582   -576.90997    12299.928 
   15350    296.15237    242.46403   -3082.1344   -2641.6302   -388.43738    12299.339 
   15400    302.02789    242.64762   -3088.2542   -2639.0106   -522.06045    12298.331 
   15450    303.02167    242.68277   -3089.4256   -2638.7038   -522.49829    12296.867 
   15500    294.52894      242.376   -3079.1999   -2641.1104   -118.25703    12294.948 
   15550    299.18951    242.55867    -3085.289   -2640.2673    -223.1114     12292.75 
   15600    298.67122    242.52251   -3084.0836   -2639.8328    -259.6717    12290.252 
   15650    301.16377    242.61041   -3087.0136   -2639.0553   -439.90156    12287.414 
   15700    303.15706    242.67678   -3089.2258   -2638.3027   -479.24782    12284.134 
   15750    291.12115     242.2725   -3075.7501   -2642.7294    6.2824529     12280.42 
   15800    296.22265     242.4332   -3081.1067    -2640.498     28.30468    12276.487 
   15850     281.1527    241.88882   -3062.9605   -2644.7672    603.14374    12272.423 
   15900    297.41506    242.45827   -3081.9425   -2639.5601     222.2008    12268.419 
   15950    289.01773    242.14908    -3071.636   -2641.7441    503.37618    12264.397 
   16000    312.89657    242.91123    -3097.041   -2631.6311   -154.28748     12260.39 
   16050    317.73658    238.01266    -3100.422    -2627.813   -210.94535    12256.112 
   16100    289.15815    237.04507    -3068.169   -2638.0682    668.50587    12251.552 
   16150    315.34843    237.94775   -3098.2583   -2629.2014   -93.219094    12247.042 
   16200     317.3816    238.02216   -3100.7386   -2628.6575   -145.09645    12242.309 
   16250    302.88945    237.42762   -3080.9205   -2630.3954    448.28761    12237.306 
   16300    299.33664    237.38921   -3079.6402   -2634.3996    558.30453    12232.304 
   16350    305.41564    237.67085   -3089.0283   -2634.7456    350.01047    12227.363 
   16400    314.51873    237.90989   -3096.9963   -2629.1735     166.8838    12222.401 
   16450    315.38072    238.02114   -3100.7047   -2631.5998    107.64231    12217.299 
   16500    307.18007    237.73499   -3091.1662   -2634.2592    363.70307    12212.027 
   16550    300.90067    237.49369   -3083.1231   -2635.5561    719.39135    12206.739 
   16600    305.33331    237.68125   -3089.3749   -2635.2147    776.76063     12201.61 
   16650    308.25154    237.76822   -3092.2739   -2633.7731    830.53656    12196.682 
   16700    312.23894    237.86228   -3095.4094   -2630.9776    752.97875    12191.976 
   16750    318.13197     237.9664   -3098.8801   -2625.6829    557.40046    12187.459 
   16800    320.28242    238.13083   -3104.3609   -2627.9651    537.09799    12182.996 
   16850    309.71891    237.70986   -3090.3286   -2629.6452    920.27017    12178.623 
   16900    314.27325    237.94048   -3098.0162   -2630.5585    735.86284    12174.491 
   16950    309.32405    237.77789   -3092.5964   -2632.5003    885.74716    12170.566 
   17000        308.9    237.79295   -3093.0984    -2633.633    911.88186    12166.903 
   17050    308.09553    242.77243   -3092.4144   -2634.1456    1058.5859    12163.521 
   17100    303.01186    242.55521   -3085.1737   -2634.4665    1372.0956    12160.537 
   17150    318.50954    243.11525   -3103.8416   -2630.0828    913.67584    12158.053 
   17200    324.52146    243.23533   -3107.8443   -2625.1433    760.26993    12155.882 
   17250    311.94869    242.87819   -3095.9398   -2631.9398    1129.8691    12153.949 
   17300    305.80924    242.74134   -3091.3781     -2636.51    1274.7057    12152.413 
   17350    314.64381    243.06588   -3102.1958    -2634.187    964.98458    12151.362 
   17400    318.73361    243.18611   -3106.2036   -2632.1115    855.55159    12150.647 
   17450    310.30532    242.99237   -3099.7457   -2638.1901    1113.7507    12150.235 
   17500    303.80082    242.72324   -3090.7746   -2638.8939     1352.833    12150.241 
   17550    294.70938    242.51616    -3083.872   -2645.5142    1541.8175    12150.801 
   17600    304.30561    242.92266    -3097.422   -2644.7904    1113.6505    12152.021 
   17650    306.16182    243.07764    -3102.588   -2647.1955    916.70528    12153.692 
   17700    300.52494    242.87361    -3095.787    -2648.779    984.24472    12155.716 
   17750    308.72148    243.16827    -3105.609   -2646.4092    664.28423    12158.091 
   17800    294.27869    242.61905   -3087.3017   -2649.5845    1098.7052    12160.726 
   17850    300.22934    242.86539   -3095.5129   -2648.9445     821.2336    12163.768 
   17900    308.34305    243.25122   -3108.3739    -2649.737    340.83476    12167.116 
   17950    312.53227    243.53322   -3117.7741    -2652.906    41.046869    12170.512 
   18000    312.00125    243.52827   -3117.6091   -2653.5309   -35.006051    12173.797 
   18050    298.63208    243.13778   -3104.5925      -2660.4    271.29989    12176.937 
   18100    285.64546    242.76137   -3092.0457   -2667.1697    565.51009    12180.088 
   18150     289.6035    242.92981   -3097.6604   -2666.8971     319.9087    12183.388 
   18200    307.42426    243.54726   -3118.2419   -2660.9716   -247.77323    12186.685 
   18250    287.76234    242.87808   -3095.9359   -2667.9112    380.40108    12189.774 
   18300    292.49275    243.18868   -3106.2894   -2671.2286    135.76638    12192.874 
   18350    291.40686    243.12345    -3104.115   -2670.6694     19.40209    12195.944 
   18400    293.09794    243.22682   -3107.5606   -2671.5996   -20.971909    12198.873 
   18450    278.31275    242.75777   -3091.9256   -2677.9565    366.93187    12201.687 
   18500    294.24699    243.39874   -3113.2913   -2675.6212   -238.64529    12204.495 
   18550    286.81998     243.1248     -3104.16    -2677.537   -45.775923    12207.093 
   18600    292.59393    243.31334   -3110.4448   -2675.2335   -256.78739    12209.503 
   18650    292.94131    243.35449   -3111.8164   -2676.0884   -323.56975    12211.642 
   18700    284.57745    243.02291   -3100.7637   -2677.4763   -36.568762    12213.479 
   18750    283.55344    242.99293   -3099.7644   -2678.0001    55.672211    12215.133 
   18800    280.17478    242.88635   -3096.2115   -2679.4728    163.13392    12216.669 
   18850    285.44111     243.1044     -3103.48    -2678.908   -76.291209    12218.125 
   18900    293.90718    243.44372   -3114.7906   -2677.6259   -323.02697     12219.39 
   18950    274.40437    242.68683   -3089.5611   -2681.4054    327.11071    12220.389 
   19000    290.12286     243.2866   -3109.5532   -2678.0174   -193.55997    12221.325 
   19050    286.50391    238.10109   -3103.3696   -2677.2168   -105.46797    12222.043 
   19100    285.18654    238.01863   -3100.6211   -2676.4277   -67.556294    12222.523 
   19150    287.25253    238.13667   -3104.5557   -2677.2893   -172.78857    12222.787 
   19200    294.11295    238.41862   -3113.9541   -2676.4833   -417.29254    12222.775 
   19250    301.05998    238.78576    -3126.192    -2678.388   -703.93436    12222.345 
   19300    290.88875    238.34464   -3111.4881   -2678.8131   -360.11999    12221.375 
   19350    281.18079    238.03381   -3101.1268   -2682.8917   -1.7993409    12220.016 
   19400    281.86705    237.97379   -3099.1263   -2679.8705     9.257701     12218.45 
   19450    297.07316    238.44941   -3114.9804   -2673.1066   -382.20606    12216.653 
   19500    291.94029    238.23467   -3107.8222   -2673.5831   -179.10096    12214.484 
   19550    299.61965    238.60743   -3120.2475    -2674.586    -491.2875    12211.964 
   19600    290.08196    238.22747   -3107.5825   -2676.1075   -206.46989        12209 
   19650    291.50913    238.25883   -3108.6276   -2675.0298   -176.59468    12205.686 
   19700    289.57419    238.17715   -3105.9051   -2675.1854   -21.852807    12202.068 
   19750    293.68308    238.24508   -3108.1694   -2671.3381    -46.26189      12198.2 
   19800    288.78526    238.12618    -3104.206   -2674.6598    124.17362    12194.109 
   19850    300.46201    238.45106   -3115.0352   -2668.1208   -141.63025    12189.829 
   19900    305.51389    238.75795   -3125.2652   -2670.8364   -224.16503    12185.233 
   19950    286.24598     237.9149   -3097.1635   -2671.3943     478.0008    12180.341 
   20000    303.79804    238.56451   -3118.8171   -2666.9405   -23.014658    12175.389 
   20050    299.61132    233.37635   -3112.5451   -2666.8959    211.59769    12170.231 
   20100    303.42542    233.42634   -3114.2113    -2662.889     267.0931    12164.905 
   20150    300.11808    233.23333   -3107.7778   -2661.3749    447.97584    12159.468 
   20200       309.84     233.5555   -3118.5167   -2657.6532    143.44678    12153.997 
   20250     307.0505     233.4564   -3115.2132   -2658.4989    361.23026    12148.355 
   20300    293.43676    233.02241   -3100.7469   -2664.2819    917.62282    12142.651 
   20350    300.60465    233.31206    -3110.402   -2663.2753     691.8566    12137.146 
   20400    307.40162    233.44308   -3114.7694   -2657.5327    616.46063    12131.757 
   20450    306.63628    233.48599   -3116.1996   -2660.1014    715.86587    12126.458 
   20500    312.97783    233.70961   -3123.6538    -2658.123    551.06986    12121.265 
   20550    308.38886    233.53999   -3117.9997   -2659.2947    733.20049    12116.116 
   20600    301.83603    233.22821    -3107.607   -2658.6488    998.56752    12111.128 
   20650    302.58674    233.32404   -3110.8013   -2660.7264    1042.4806    12106.405 
   20700    295.90389    233.09086   -3103.0285   -2662.8939     1361.981    12102.011 
   20750    315.15429    233.69837    -3123.279   -2654.5109    869.24688    12098.048 
   20800    310.54793    233.49121   -3116.3735    -2654.457    1073.4875    12094.335 
   20850    311.46151    233.48149   -3116.0497   -2652.7743    1105.2463     12090.94 
   20900    316.72353    233.57346   -3119.1153   -2648.0131    1012.7673    12087.886 
   20950    308.56501    233.34783   -3111.5945   -2652.6274    1309.4357    12085.148 
   21000    298.16329    233.01462   -3100.4873    -2656.992    1711.4973     12082.88 
   21050    314.61664    233.55034   -3118.3448   -2650.3764    1253.9667     12081.25 
   21100    315.99928    233.69511   -3123.1702   -2653.1452    1122.9842     12080.09 
   21150    308.33966    233.29967    -3109.989   -2651.3572    1383.3822    12079.323 
   21200    303.60476    233.10607   -3103.5355   -2651.9465    1604.0906    12079.096 
   21250    321.07768    233.68064   -3122.6878   -2645.1091    1196.6315    12079.484 
   21300    313.75311       233.48   -3116.0001   -2649.3161    1415.3775    12080.353 
   21350     310.0557    233.43222   -3114.4073   -2653.2229    1474.6997    12081.772 
   21400    319.04885    233.64621   -3121.5403   -2646.9793     1177.932    12083.774 
   21450     323.0426    233.77349   -3125.7831   -2645.2817    978.97581    12086.219 
   21500     311.8196    233.41612   -3113.8705   -2650.0625    1152.0558    12089.049 
   21550     311.2702    233.47647   -3115.8824   -2652.8916    1011.7025    12092.315 
   21600     312.9701    233.52392   -3117.4641   -2651.9448    990.21224     12095.98 
   21650    310.63603    233.39317   -3113.1058   -2651.0582    1100.6421    12100.034 
   21700      308.138    233.41954   -3113.9845   -2655.6526    1012.7225    12104.515 
   21750    311.20511    233.58118   -3119.3726   -2656.4786     733.7102    12109.388 
   21800    302.93776    233.34724   -3111.5748   -2660.9778    861.77891    12114.535 
   21850    308.44744    233.49117   -3116.3722   -2657.5801    784.32278    12119.987 
   21900    295.25104    233.13075   -3104.3584   -2665.1949    1135.5717    12125.753 
   21950    289.13251    232.95203   -3098.4009   -2668.3382    1153.6211        12132 
   22000    297.32752    233.29411   -3109.8037   -2667.5515     737.6379    12138.722 
   22050    305.11859    228.53607   -3117.8691   -2664.0283     369.6774    12145.723 
   22100      312.662    228.84814   -3128.2712   -2663.2102    8.1916929    12152.797 
   22150     304.8488    228.61062   -3120.3539   -2666.9145    117.29796    12159.767 
   22200     304.4811    228.69562   -3123.1872   -2670.2946   -67.366015     12166.65 
   22250    298.15117    228.57849   -3119.2829   -2675.8057    16.276779    12173.374 
   22300    286.95021     228.3081   -3110.2699   -2683.4532    260.65328    12179.989 
   22350    295.35562    228.72397   -3124.1325   -2684.8134   -151.85634    12186.566 
   22400    290.97913    228.60198   -3120.0659   -2687.2565    -160.4353    12192.955 
   22450    287.72339    228.52701   -3117.5669   -2689.6002    -340.7847    12199.126 
   22500    299.81555    228.89413   -3129.8044   -2683.8515   -889.65158    12204.946 
   22550    290.74396    228.66691   -3122.2302   -2689.7706   -736.86875    12210.169 
   22600    281.69872    228.43811   -3114.6036   -2695.5981   -596.41318    12214.845 
   22650    282.50923    228.45915   -3115.3051    -2695.094   -698.16148    12219.024 
   22700    291.21992    228.83055    -3127.685   -2694.5174   -986.04793    12222.631 
   22750    281.15486     228.4489   -3114.9634   -2696.7669   -642.04777    12225.572 
   22800    282.64498    228.54985   -3118.3284   -2697.9155   -779.40268    12227.961 
   22850     279.9727    228.47785   -3115.9282     -2699.49   -750.30647    12229.753 
   22900    268.41547      228.056   -3101.8668   -2702.6191   -453.00697    12230.969 
   22950     284.2884    228.66342    -3122.114   -2699.2565   -985.28529    12231.699 
   23000    284.22762    228.73883   -3124.6278   -2701.8608   -919.74379    12231.732 
   23050    286.05361    233.63318   -3121.1058   -2695.6228   -725.27549    12231.057 
   23100     267.6508    232.91718   -3097.2394   -2699.1291    -122.1535    12229.818 
   23150     272.8076     233.1324   -3104.4132   -2698.6326   -396.06038    12228.248 
   23200    277.43535    233.33724   -3111.2412   -2698.5771   -650.67994    12226.267 
   23250    290.93946    233.71351   -3123.7836   -2691.0332   -993.06423    12223.709 
   23300    278.93832    233.32064   -3110.6881   -2695.7885    -570.1915    12220.428 
   23350    277.18223     233.2101   -3107.0032   -2694.7157   -337.78973    12216.592 
   23400    283.75373     233.5706     -3119.02   -2696.9578   -544.31647    12212.325 
   23450    288.95933    233.78707   -3126.2355   -2696.4304   -701.24116     12207.52 
   23500     268.6638     232.9822   -3099.4068   -2699.7898    43.306119    12202.153 
   23550    283.04199    233.45541   -3115.1802   -2694.1767   -291.68676    12196.505 
   23600    274.44272    233.13992   -3104.6639   -2696.4511   -5.2592006    12190.504 
   23650    282.74163     233.4236   -3114.1201   -2693.5634   -130.31467    12184.214 
   23700    289.86683    233.66379   -3122.1262   -2690.9712   -238.42552    12177.607 
   23750    292.36501    233.67068   -3122.3559   -2687.4851   -179.24603    12170.618 
   23800    285.46528    233.46846   -3115.6152   -2691.0072    188.84554    12163.288 
   23850    296.04742    233.80125   -3126.7084   -2686.3603    2.3314587    12155.761 
   23900    293.18368    233.62247   -3120.7488   -2684.6603    234.66702    12147.998 
   23950    291.88611    233.48966    -3116.322   -2682.1635    501.82452    12140.095 
   24000    292.04526    233.53307   -3117.7691    -2683.374    513.82102    12132.186 
   24050    308.21321    234.05848   -3135.2825   -2676.8387    97.483925    12124.259 
   24100    294.45804    233.56417   -3118.8057   -2680.8217    751.77768    12116.173 
   24150    288.76418    233.35879   -3111.9596   -2682.4447    1096.6857    12108.209 
   24200    313.17497    234.16384   -3138.7947   -2672.9707    364.81823    12100.512 
   24250    304.28114    233.90027   -3130.0089   -2677.4138    661.91891    12092.795 
   24300    299.72571    233.68357   -3122.7858   -2676.9665    994.71187    12085.164 
   24350    297.46618    233.51559   -3117.1864    -2674.728    1210.5184    12077.812 
   24400    311.09278    233.95635   -3131.8784   -2669.1514    832.23787    12070.808 
   24450     304.8788    233.80845   -3126.9483   -2673.4642    1100.0427    12064.027 
   24500      305.903    233.73272   -3124.4241   -2669.4166    1253.1741    12057.567 
   24550    298.23747    233.47108   -3115.7026   -2672.0969    1570.7026    12051.537 
   24600     297.8326    233.45079   -3115.0263   -2672.0228    1633.8616    12046.095 
   24650    312.71469    233.93111    -3131.037   -2665.8976    1264.4941    12041.251 
   24700    304.46286     233.7003   -3123.3433   -2670.4779    1560.9424    12036.876 
   24750    307.58487    233.78404   -3126.1348   -2668.6256    1603.3287    12033.076 
   24800    308.19788     233.8104   -3127.0133   -2668.5923    1591.9757    12029.899 
   24850    319.71446    234.14366   -3138.1219   -2662.5708    1316.5664    12027.324 
   24900    303.79782    233.56902   -3118.9673    -2667.091    1838.4615    12025.279 
   24950    323.99664    234.34415    -3144.805   -2662.8846     1177.979     12023.91 
   25000    312.18016     233.9337   -3131.1235   -2666.7792    1595.3265    12023.029 
   25050    304.78296    233.65678   -3121.8926    -2668.551    1873.3867     12022.77 
   25100    315.87513    234.04447   -3134.8156   -2664.9753    1420.6686    12023.262 
   25150    320.95544    234.22603   -3140.8678   -2663.4709    1232.1736    12024.324 
   25200    302.51789    233.50217   -3116.7389   -2666.7665    1839.5053    12025.898 
   25250    311.30344    233.81736   -3127.2454   -2664.2052    1534.6114    12028.208 
   25300    307.89281    233.75006    -3125.002   -2667.0348    1582.8728    12031.168 
   25350    301.63095    233.58927   -3119.6423   -2670.9891    1686.7128    12034.813 
   25400    308.43528    233.76097   -3125.3657   -2666.5916    1427.4433    12039.171 
   25450    314.50251    234.00322   -3133.4408   -2665.6422    1199.1424    12044.108 
   25500     303.6887    233.65275   -3121.7584   -2670.0444    1437.5342    12049.547 
   25550    299.89898    233.54409   -3118.1363   -2672.0593    1357.2066    12055.583 
   25600    314.95323    234.02338   -3134.1127   -2665.6437    830.09651    12062.168 
   25650    302.44431    233.60926   -3120.3086   -2670.4456    1195.9782    12069.104 
   25700    303.05142    233.61706   -3120.5686   -2669.8026    1080.0895     12076.51 
   25750    302.75674    233.70809    -3123.603   -2673.2753    864.04737     12084.35 
   25800    303.84244    233.67804   -3122.6013   -2670.6586    843.10504    12092.517 
   25850     292.6722    233.30208   -3110.0695   -2674.7417    1098.2232    12101.044 
   25900    305.51218    233.72757   -3124.2525   -2669.8263    666.09498    12109.976 
   25950    286.12627    233.10593    -3103.531   -2677.9399    1158.9755    12119.199 
   26000    301.35784    233.55415   -3118.4717   -2670.2247    607.40905    12128.868 
   26050    299.43644    238.45251   -3115.0838   -2669.6948    568.85989    12138.773 
   26100    295.36034    238.33821   -3111.2738   -2671.9477    584.90183    12148.875 
   26150      294.457    238.33133   -3111.0443   -2673.0618     423.1833    12159.182 
   26200    291.28745    238.26301   -3108.7671   -2675.4991    325.96706    12169.616 
   26250    295.22556    238.40163   -3113.3877    -2674.262     115.4246    12180.102 
   26300    293.96233    238.41433   -3113.8109   -2676.5642    46.475368     12190.54 
   26350    288.85212    238.19555   -3106.5183   -2676.8726    174.61465    12200.904 
   26400    289.42289    238.20869   -3106.9562   -2676.4616    84.334739    12211.246 
   26450    293.42492    238.32938   -3110.9792   -2674.5319   -269.26174    12221.507 
   26500    288.80897    238.24957    -3108.319   -2678.7375   -413.32664    12231.511 
   26550    292.21702    238.27079   -3109.0262   -2674.3755   -621.57122    12241.165 
   26600    286.89063    238.03679   -3101.2262   -2674.4981   -491.48256    12250.367 
   26650     287.9257    238.05471   -3101.8235   -2673.5559   -635.76658     12259.15 
   26700    294.38855    238.36127   -3112.0422   -2674.1616   -989.57677    12267.442 
   26750    279.47539    237.79596   -3093.1988   -2677.5003   -538.83594    12275.091 
   26800    271.41376    237.51994   -3083.9979   -2680.2905   -271.40219    12282.289 
   26850    276.04195     237.6404   -3088.0135    -2677.422    -427.5231    12289.186 
   26900    284.50716    237.93943   -3097.9811   -2674.7983   -816.69917    12295.688 
   26950    290.75613    238.16757   -3105.5858   -2673.1081   -1164.5459    12301.583 
   27000    283.00515    237.83852   -3094.6174   -2673.6687    -1011.052    12306.718 
   27050    283.33075    242.88212   -3096.0708   -2674.6378   -1089.2388    12311.118 
   27100    267.80931    242.27559    -3075.853   -2677.5069   -583.63309    12314.819 
   27150    279.01604    242.63008   -3087.6694   -2672.6541   -886.03223    12318.009 
   27200    281.94714    242.62297   -3087.4323   -2668.0573   -957.73146    12320.572 
   27250    284.62343    242.67488   -3089.1625   -2665.8067   -1052.6478    12322.434 
   27300    280.20139    242.53923    -3084.641   -2667.8626   -986.62526    12323.569 
   27350    282.92705    242.54376    -3084.792   -2663.9595   -971.19274     12323.99 
   27400    279.20744     242.3923   -3079.7434   -2664.4434   -717.51257    12323.721 
   27450    292.68919    242.78672   -3092.8906   -2657.5376   -956.80225    12322.835 
   27500    284.42176    242.44385   -3081.4616   -2658.4058   -581.57555    12321.294 
   27550    294.22934    242.69372   -3089.7905   -2652.1467   -667.53227    12319.216 
   27600    281.02363    242.10214   -3070.0714   -2652.0701    -169.3967    12316.634 
   27650    291.11502    242.44434   -3081.4779   -2648.4664   -443.26598    12313.722 
   27700    293.97158    242.46369   -3082.1229   -2644.8625   -478.59149    12310.397 
   27750    290.74954    242.29505   -3076.5018   -2644.0338    -304.7593     12306.64 
   27800    295.74397    242.37944   -3079.3146   -2639.4178   -291.66118    12302.505 
   27850    287.10991    242.08509   -3069.5031   -2642.4489   -32.653527    12298.046 
   27900     303.9337    242.55026   -3085.0087   -2632.9304   -481.10688    12293.339 
   27950    306.45105     242.6822   -3089.4066   -2633.5839   -400.39674    12288.199 
   28000    292.07353    242.09339   -3069.7798   -2635.3426     284.6914    12282.669 
   28050    298.98856    242.41094   -3080.3646   -2635.6417    86.664233    12277.052 
   28100    304.46132    242.53745   -3084.5818   -2631.7187   -85.447503    12271.319 
   28150    301.98619    242.27516   -3075.8388   -2626.6572    209.92417    12265.365 
   28200    304.63662    242.37444    -3079.148   -2626.0241    230.39912    12259.309 
   28250    312.15686    242.55416   -3085.1387    -2620.829    41.152428    12253.175 
   28300    307.20919    242.37881   -3079.2936   -2622.3432    306.02798    12246.891 
   28350    301.28271    242.18298   -3072.7659   -2624.6307    629.89214    12240.585 
   28400    300.48088    242.22846    -3074.282   -2627.3395    700.44431    12234.406 
   28450    308.09119    242.49955   -3083.3182   -2625.0559     534.6706    12228.403 
   28500    301.33603    242.25859   -3075.2862   -2627.0717    832.58335    12222.535 
   28550    299.78851    242.13129   -3071.0431   -2625.1304    1008.1208    12216.919 
   28600    310.42162    242.47918   -3082.6393   -2620.9107    840.78875    12211.641 
   28650    323.72157     242.8355   -3094.5166   -2613.0053    597.82892    12206.625 
   28700    318.41001    242.66246   -3088.7486   -2615.1379    780.45403    12201.768 
   28750    317.57256    242.74546   -3091.5153   -2619.1502    780.46815    12197.119 
   28800    316.01334    242.69529    -3089.843   -2619.7971    838.79826    12192.709 
   28850    321.21094    242.90859   -3096.9529   -2619.1759    756.93467    12188.542 
   28900    314.98146    242.67333    -3089.111      -2620.6    989.72636    12184.615 
   28950    309.94004    242.49167   -3083.0556   -2622.0432    1200.6718    12181.029 
   29000    313.96598    242.58719   -3086.2398   -2619.2392    1088.5971    12177.906 
   29050    331.74645    243.24022   -3108.0073   -2614.5596    555.46845    12175.141 
   29100    306.73014    242.40669   -3080.2229   -2623.9851    1368.9979    12172.563 
   29150    311.01158    242.64809   -3088.2697   -2625.6636    1207.0204    12170.496 
   29200    316.96045    242.91764   -3097.2545   -2625.7999    990.42175    12168.894 
   29250    311.25634    242.67039   -3089.0132    -2626.043    1226.5415    12167.679 
   29300    322.15519    243.04633   -3101.5442   -2622.3628    893.62672    12166.902 
   29350    305.27585    242.44609   -3081.5365   -2627.4618    1341.4942     12166.48 
   29400    308.81306    242.49717   -3083.2389   -2623.9029    1196.5033    12166.569 
   29450    316.87857    242.80926   -3093.6421   -2622.3092    891.53211    12167.126 
   29500    310.74727    242.62415   -3087.4717   -2625.2587    1136.7409    12168.023 
   29550    309.72037    242.68806   -3089.6019   -2628.9163    1143.0248    12169.349 
   29600    313.94251     242.8414   -3094.7134   -2627.7477    855.67085    12171.111 
   29650    311.70734    242.78758   -3092.9194   -2629.2783    772.08767    12173.175 
   29700    292.86121    242.20181   -3073.3936   -2637.7847     1218.724    12175.549 
   29750    304.51211    242.73131   -3091.0438   -2638.1051    864.76057    12178.354 
   29800    296.05398    242.36156   -3078.7187   -2638.3608    1179.6641    12181.516 
   29850     305.3328    242.72999   -3090.9996   -2636.8402    802.84575     12185.12 
   29900    307.86795    242.95053    -3098.351   -2640.4208    568.64111    12189.009 
   29950    300.84075    242.73556   -3091.1852   -2643.7074    772.52074    12193.066 
   30000    293.43773    242.56865   -3085.6216   -2649.1552    931.00202    12197.393 
   30050    301.39911    242.95458    -3098.486   -2650.1777    493.64098    12202.047 
   30100    291.72667    242.55303   -3085.1011   -2651.1797    681.02486    12206.852 
   30150    301.71667     242.9263   -3097.5432   -2648.7625    322.35053    12211.833 
   30200    300.12323    242.93989   -3097.9964   -2651.5859    293.34674    12216.868 
   30250    302.93956    243.03259   -3101.0863   -2650.4866    156.28228    12221.922 
   30300    303.14666    242.97954    -3099.318   -2648.4103    118.83619    12226.917 
   30350    296.16114    242.76814   -3092.2714   -2651.7541     192.6193    12231.822 
   30400    295.75042    242.88732   -3096.2441   -2656.3378   -20.938413    12236.658 
   30450    286.24796    242.54183   -3084.7275   -2658.9554    251.11624    12241.355 
   30500     280.8151    242.28488   -3076.1625   -2658.4714    451.08315    12246.041 
   30550    293.95556    242.80889   -3093.6297   -2656.3931   -80.341957    12250.783 
   30600    298.36881    242.93355   -3097.7848   -2653.9839   -352.74187    12255.347 
   30650    300.82498    243.02643   -3100.8809   -2653.4265   -480.79003    12259.548 
   30700    291.82554    242.72057   -3090.6858   -2656.6174   -176.21315    12263.355 
   30750     290.4568    242.63349   -3087.7829   -2655.7504   -156.43423    12266.895 
   30800    289.93543    242.69334    -3089.778    -2658.521    -252.9946    12270.186 
   30850    285.91986    242.56201   -3085.4004   -2660.1163   -134.02211    12273.185 
   30900    272.42215    242.09015   -3069.6717   -2664.4644     262.2749    12275.975 
   30950    283.20515    242.51697   -3083.8991   -2662.6529   -148.66998    12278.705 
   31000    289.15461    242.73897    -3091.299   -2661.2034   -380.69187    12281.208 
   31050    293.66101    242.88326   -3096.1088   -2659.3103   -552.93127    12283.349 
   31100    291.07276    242.78982   -3092.9941   -2660.0455   -571.07235     12285.03 
   31150    292.28292    242.84038   -3094.6793   -2659.9306   -588.86585    12286.216 
   31200    282.75877    242.44689    -3081.563   -2660.9807    -254.7221    12286.941 
   31250    285.46507    242.51195   -3083.7316    -2659.124   -369.62151    12287.332 
   31300    287.77476     242.6706   -3089.0199   -2660.9768   -453.25204    12287.351 
   31350     277.3524    242.25345   -3075.1152   -2662.5745   -104.81124    12286.978 
   31400    286.77649    242.50927   -3083.6423    -2657.084   -401.17198    12286.336 
   31450    290.91186    242.71383    -3090.461   -2657.7517   -522.21299    12285.312 
   31500    272.84154    242.08396   -3069.4653   -2663.6342    139.98158    12283.875 
   31550    288.35861    242.66544    -3088.848   -2659.9364     -297.441    12282.276 
   31600    297.82857      242.931   -3097.7001   -2654.7027   -541.52253    12280.361 
   31650    291.64906    242.70939   -3090.3131   -2656.5072   -276.23896        12278 
   31700    294.51307    242.85207   -3095.0689    -2657.003   -324.86674    12275.284 
   31750    285.35732    242.44469   -3081.4896   -2657.0422    12.433182    12272.239 
   31800    303.32563    242.95078   -3098.3593   -2647.1854    -466.3033    12268.978 
   31850    305.10995    243.05675   -3101.8916   -2648.0637   -506.41443    12265.298 
   31900    287.75131    242.45647   -3081.8823    -2653.874    175.18152    12261.194 
   31950    290.83074    242.46132   -3082.0439   -2649.4552     247.0479    12256.982 
   32000    301.50435    242.81662   -3093.8873   -2645.4225   -37.237603    12252.706 
   32050    294.80942    242.61097   -3087.0325   -2648.5258    214.05537    12248.261 
   32100    298.19841    242.60664   -3086.8881   -2643.3406     254.3961     12243.73 
   32150    296.98678    242.61261    -3087.087   -2645.3416    349.39006    12239.148 
   32200    292.18573    242.40563   -3080.1877   -2645.5836    597.22525     12234.58 
   32250     305.0197    242.77794   -3092.5981   -2638.9044    226.05435    12230.121 
   32300     308.6513    242.85342   -3095.1139   -2636.0185     105.0468    12225.615 
   32350    292.46809    242.21184    -3073.728   -2638.7039    793.40231     12221.02 
   32400    302.13156    242.49415   -3083.1384   -2633.7406    673.08016    12216.634 
   32450    316.22234    242.98709   -3099.5697   -2629.2129    254.40445    12212.412 
   32500    307.00595     242.5865   -3086.2165   -2629.5684    665.84814    12208.196 
   32550    311.72232    242.79734   -3093.2445   -2629.5812    659.86829    12204.138 
   32600     303.5852    242.49517   -3083.1725   -2631.6125    992.72089     12200.28 
   32650    311.73638    242.71176    -3090.392   -2626.7077    809.13786    12196.744 
   32700    310.06874    242.62373   -3087.4576   -2626.2539    987.49124    12193.469 
   32750    292.06414    242.00934   -3066.9779   -2632.5547    1648.2085    12190.583 
   32800    308.87293    242.63374   -3087.7914   -2628.3663    1163.3153    12188.365 
   32850    323.67655    243.04233    -3101.411   -2619.9667    810.31516    12186.604 
   32900     318.7588    242.80257   -3093.4191   -2619.2895    1019.4378    12185.137 
   32950    316.31229    242.67639    -3089.213   -2618.7224    1008.3712    12184.022 
   33000    304.71769    242.32294   -3077.4314    -2624.187    1260.9279    12183.275 
   33050    312.62643    242.61579    -3087.193   -2622.1849    1036.4053    12183.009 
   33100    315.39458    242.74567   -3091.5223   -2622.3968     1014.209    12183.127 
   33150    309.15771    242.53449    -3084.483   -2624.6344    1215.4482     12183.63 
   33200    313.57159    242.65809   -3088.6031   -2622.1892    1004.3495    12184.612 
   33250    321.88706    242.97313   -3099.1043   -2620.3217    742.43372    12185.945 
   33300     295.6031     242.1021   -3070.0701   -2630.3829    1441.1127    12187.576 
   33350    313.14027    242.63058    -3087.686   -2621.9135    845.24607    12189.733 
   33400    314.67043    242.73354   -3091.1179   -2623.0695     763.1712    12192.226 
   33450    313.62537    242.65531   -3088.5102   -2622.0162    818.97917    12194.981 
   33500    316.12011    242.71125   -3090.3749   -2620.1702    717.00446    12197.989 
   33550    307.73506    242.36492   -3078.8306    -2621.098    972.21433    12201.233 
   33600    302.84062    242.23262   -3074.4208   -2623.9683    1103.3018    12204.841 
   33650    310.46844    242.55167   -3085.0557   -2623.2574    732.68565    12208.869 
   33700     312.4547    242.62088   -3087.3625   -2622.6098    577.48901    12213.143 
   33750    311.34613    242.59962    -3086.654   -2623.5502    647.22663    12217.561 
   33800    314.09293    242.66387   -3088.7958   -2621.6063    534.35539    12222.151 
   33850    306.39601    242.41516   -3080.5055   -2624.7646    681.88462    12226.884 
   33900    303.25291     242.3268   -3077.5601   -2626.4943    679.88995    12231.816 
   33950     307.4457    242.45482   -3081.8272    -2624.525    415.44496    12236.956 
   34000    314.33882    242.74698    -3091.566   -2624.0109    54.710509    12242.154 
   34050    294.42558    237.00424   -3066.8079   -2628.8721    733.13282    12247.281 
   34100    295.29638     237.0886   -3069.6199   -2630.3889    672.38463    12252.593 
   34150    304.13265    237.39254   -3079.7514   -2627.3771    273.39814    12258.091 
   34200    306.74117    237.55875   -3085.2916   -2629.0373     87.00316    12263.559 
   34250    292.71433     237.0584   -3068.6135   -2633.2231    335.13537    12268.934 
   34300    305.45184    237.56789   -3085.5964   -2631.2599   -119.35945    12274.269 
   34350    308.28467    237.56556   -3085.5185   -2626.9684   -158.33923    12279.385 
   34400    297.44919    237.19943   -3073.3144   -2630.8813    177.91432    12284.256 
   34450    292.23398     237.0782   -3069.2733   -2634.5974    238.69146    12289.039 
   34500    301.64531    237.36042   -3078.6806    -2630.006   -124.37162    12293.761 
   34550    308.18206    237.59975   -3086.6582   -2628.2607   -407.50858    12298.249 
   34600     305.4956    237.44272    -3081.424   -2627.0224   -371.57338    12302.367 
   34650    315.90834    237.82847   -3094.2822   -2624.3925   -657.24801    12306.043 
   34700     305.8348    237.47246   -3082.4154   -2627.5093   -353.26759    12309.203 
   34750    306.96337    237.62367   -3087.4556   -2630.8709   -446.45282    12311.966 
   34800    285.14805    236.86258   -3062.0859   -2637.9498    174.80048    12314.348 
   34850    299.50156      237.328   -3077.6001   -2632.1142    -245.6437    12316.564 
   34900    298.54256    237.28008   -3076.0026   -2631.9431   -184.18205    12318.493 
   34950    290.88494    236.95987   -3065.3291   -2632.6598    103.85425    12320.153 
   35000    303.84655    237.38544   -3079.5146   -2627.5659   -359.88227    12321.648 
   35050    305.85603    237.51155   -3083.7183   -2628.7807   -631.40576    12322.769 
   35100    298.11851    237.24306   -3074.7688   -2631.3401    -446.6522    12323.366 
   35150    304.47813    237.54349   -3084.7831    -2631.895   -640.27319    12323.498 
   35200    306.29462    237.55789    -3085.263   -2629.6729   -540.87214    12323.102 
   35250    295.40536     237.1481   -3071.6033   -2632.2102   -60.593009    12322.224 
   35300    299.57068    237.32027   -3077.3422   -2631.7536   -217.15117    12321.077 
   35350    301.59727    237.38939   -3079.6462   -2631.0431   -281.81363    12319.627 
   35400    295.19332    237.23177   -3074.3923   -2635.3146   -92.609675    12317.843 
   35450     295.2047    237.24837   -3074.9458   -2635.8512   -189.11574    12315.797 
   35500    306.18425    237.59314   -3086.4381   -2631.0122   -515.03101    12313.428 
   35550    303.97397    237.57588   -3085.8628   -2633.7245   -383.51328    12310.587 
   35600    294.13093    237.15881   -3071.9605    -2634.463   -71.584583    12307.353 
   35650    318.79884    238.01676   -3100.5586   -2626.3695   -795.47564    12303.817 
   35700    301.12733    237.34153    -3078.051   -2630.1469   -243.66968    12299.723 
   35750    305.32454    237.52666   -3084.2218   -2630.0747   -297.83719    12295.219 
   35800    283.39699    236.80875   -3060.2916   -2638.7601    437.83268    12290.404 
   35850    285.89069    236.96095   -3065.3649   -2640.1242     451.4596    12285.578 
   35900    297.51743    237.31899   -3077.2997   -2634.7651    208.52795    12280.794 
   35950    295.90765    237.28451   -3076.1504   -2636.0102    367.19599    12275.959 
   36000    301.16099    237.46435   -3082.1449   -2634.1908    280.06553    12271.095 
   36050    304.75098    237.69266   -3089.7552   -2636.4613    107.01331    12266.174 
   36100    293.38278    237.31023   -3077.0078   -2640.6231    412.79904    12261.134 
   36150    291.58824    237.17352   -3072.4506   -2638.7352    492.72944    12256.111 
   36200     314.2584    237.99617   -3099.8725   -2632.4369   -254.82207    12251.103 
   36250    292.86858    237.32236    -3077.412   -2641.7922    430.99524    12245.835 
   36300    298.38773    237.46808   -3082.2695   -2638.4403    425.72966    12240.535 
   36350    301.05082    237.49699   -3083.2331   -2635.4428     400.0632    12235.276 
   36400    292.36392    237.16432   -3072.1441   -2637.2749    726.54221    12230.049 
   36450    301.87363    237.46857   -3082.2858   -2633.2716    458.93712     12224.99 
   36500    319.42888     238.0481   -3101.6034   -2626.4772   -28.080929    12219.977 
   36550    315.13763    238.02042   -3100.6808   -2631.9374     153.6946    12214.763 
   36600    318.24833    238.21436   -3107.1454   -2633.7751    8.4236898      12209.4 
   36650     316.9443    238.25653   -3108.5511   -2637.1205    76.194552    12203.841 
   36700    301.26458    237.69301    -3089.767   -2641.6588    613.88351    12198.137 
   36750    298.56848    237.64081   -3088.0269   -2643.9289     737.0632    12192.545 
   36800    295.96581    237.63915   -3087.9718   -2647.7451    850.31812    12187.158 
   36850    309.22394    237.99078   -3099.6927   -2639.7455    492.88161    12182.004 
   36900    319.55999    238.34665    -3111.555   -2636.2337    162.92126    12176.908 
   36950    312.62255    238.21782   -3107.2605   -2642.2582    431.76697    12171.718 
   37000    304.46365    237.98091   -3099.3637   -2646.4971    777.04968    12166.554 
   37050    301.58808    237.94468   -3098.1558   -2649.5664     894.8897    12161.601 
   37100    302.69184    238.07121   -3102.3736   -2652.1425    832.71149    12156.931 
   37150    310.23405    238.31152   -3110.3841   -2648.9344    684.72075    12152.506 
   37200    292.95343     237.6504   -3088.3468   -2652.6007     1233.161    12148.326 
   37250    322.91585    238.69027    -3123.009   -2642.6961    220.63354     12144.52 
   37300      326.848    238.88169   -3129.3898   -2643.2281    73.087207    12140.671 
   37350    309.06031    238.29567   -3109.8557   -2650.1519    694.66226    12136.689 
   37400    304.21141    238.20148   -3106.7162   -2654.2247     829.3355    12132.849 
   37450    299.22461    238.24232   -3108.0772   -2663.0033    908.40959    12129.257 
   37500    304.62331    238.52287    -3117.429    -2664.325    764.79534     12125.94 
   37550    293.71486    238.17493    -3105.831   -2668.9524    1071.7629    12122.875 
   37600    297.18237    238.26357   -3108.7858   -2666.7495     922.6025    12120.171 
   37650    301.75658    238.51039   -3117.0129   -2668.1729    716.53047    12117.773 
   37700    295.84193    238.36423   -3112.1411   -2672.0987    900.35786    12115.599 
   37750    306.96313    238.86055   -3128.6851   -2672.1007    473.79302    12113.683 
   37800    302.78042    238.80175   -3126.7251   -2676.3622     530.1308    12111.864 
   37850    293.97864    238.55944   -3118.6481   -2681.3771    788.93568    12110.141 
   37900    284.84586    238.27674   -3109.2246    -2685.538    985.49846     12108.65 
   37950    286.01812    238.34489   -3111.4963    -2686.066    857.78408    12107.503 
   38000     283.9629    238.22719   -3107.5731   -2685.1998    975.41435    12106.659 
   38050    300.10513    233.90735   -3130.2449   -2683.8613    453.87037    12106.112 
   38100    310.66573    234.26003   -3142.0009   -2679.9092    133.36801    12105.634 
   38150    297.95852    233.81288   -3127.0961   -2683.9054    561.42937    12105.065 
   38200    298.29772    233.85262   -3128.4205   -2684.7253    495.49578    12104.561 
   38250    300.52919    233.98351   -3132.7838   -2685.7694    296.59216     12104.12 
   38300    296.65708    233.85674   -3128.5581   -2687.3032    399.87601    12103.653 
   38350    288.75644     233.7131   -3123.7702   -2694.2668    628.31798    12103.215 
   38400     292.7122    233.82087   -3127.3624   -2691.9751    558.05085    12102.907 
   38450    281.44951    233.42014   -3114.0045   -2695.3697    872.48052    12102.741 
   38500    297.29671    233.98193    -3132.731   -2690.5247    283.98633    12102.802 
   38550    304.40976    234.25582   -3141.8607   -2689.0743   -25.430481    12102.827 
   38600    301.59922    234.22341   -3140.7802   -2692.1742    153.30833    12102.662 
   38650    294.49875    233.89506   -3129.8355   -2691.7909     533.7833    12102.402 
   38700    303.64702    234.22632   -3140.8774   -2689.2255    294.28259    12102.173 
   38750    291.72925    233.74901   -3124.9671    -2691.042    645.14836    12101.948 
   38800    282.56819    233.41348   -3113.7827    -2693.484    893.61395     12101.87 
   38850    296.80347    233.90413   -3130.1376    -2688.665    401.79464     12102.03 
   38900    295.77902    233.96195   -3132.0649    -2692.116    353.39364    12102.243 
   38950    284.26988     233.5832   -3119.4399     -2696.61    806.95701    12102.472 
   39000    302.70988    234.27199   -3142.3996   -2692.1416    278.99736    12102.895 
   39050    303.49225    229.22358    -3140.786   -2689.3643     282.4057     12103.31 
   39100    288.47663    228.72011   -3124.0036   -2694.9165    719.34513    12103.679 
   39150    293.46994    228.88483   -3129.4944   -2692.9801    503.35214    12104.193 
   39200    298.39889    228.99119   -3133.0397    -2689.194    380.14332    12104.775 
   39250    290.68323    228.81249    -3127.083   -2694.7137    607.78849    12105.382 
   39300     295.4823    228.96377   -3132.1256    -2692.618    504.90376    12106.087 
   39350    308.36648    229.32713   -3144.2376   -2685.5658    141.17262    12106.839 
   39400    296.14509    228.98524   -3132.8415   -2692.3481    477.30138    12107.494 
   39450    273.96361    228.19924   -3106.6412   -2699.1411     1247.834    12108.218 
   39500     291.3705    228.71643   -3123.8809   -2690.4893    688.30468    12109.361 
   39550    313.18698    229.46557   -3148.8522   -2683.0103   -128.03359    12110.647 
   39600    289.90674    228.65997    -3121.999   -2690.7847    487.51794    12111.726 
   39650    295.32033    228.81553   -3127.1843   -2687.9177    428.45119    12112.822 
   39700    302.97675    229.13719   -3137.9064   -2687.2515    290.86225    12113.932 
   39750    292.60123    228.69515   -3123.1718   -2687.9497     604.8716    12115.019 
   39800    299.51769    228.94368   -3131.4559    -2685.946     354.3705    12116.195 
   39850    305.40992    229.07406    -3135.802   -2681.5278    224.12297    12117.354 
   39900    282.91869    228.39331   -3113.1102   -2692.2901    879.52052    12118.463 
   39950    294.69529    228.85266   -3128.4221   -2690.0852    442.08016    12119.772 
   40000    304.87001    229.17318   -3139.1059   -2685.6348     64.88914    12121.134 
   40050    305.60269    234.07365   -3135.7883   -2681.2274    14.234292    12122.346 
   40100    302.24825    233.95126   -3131.7087   -2682.1373    103.16654    12123.367 
   40150    292.44729    233.58936   -3119.6453   -2684.6521    382.93183    12124.268 
   40200    290.60611    233.54265   -3118.0884   -2685.8338    494.79764     12125.17 
   40250    285.23174    233.49406   -3116.4688   -2692.2082    659.48819     12126.16 
   40300    295.24436    233.86276   -3128.7587   -2689.6051    321.15607    12127.296 
   40350    293.37278    233.61912   -3120.6373   -2684.2675    444.44774    12128.451 
   40400      297.477    233.73929    -3124.643   -2682.1685    348.24542    12129.634 
   40450    297.30492    233.70936   -3123.6453   -2681.4268    282.33065    12130.816 
   40500    289.95317    233.50769    -3116.923   -2685.6396    434.22788    12131.977 
   40550    299.83011    233.78417   -3126.1391   -2680.1645    116.77792    12133.154 
   40600    310.16699    234.04705   -3134.9016   -2673.5517   -156.50591    12134.204 
   40650    294.37633    233.46856   -3115.6186   -2677.7561    470.01002    12135.006 
   40700    279.59129    232.89151   -3096.3837   -2680.5128    991.59648    12135.876 
   40750    304.60198    233.72516   -3124.1721   -2671.0998    162.85796    12137.018 
   40800    300.81992     233.6595   -3121.9834   -2674.5366    215.68938    12138.114 
   40850    302.03676    233.59294   -3119.7646   -2670.5078     222.2031     12139.12 
   40900    308.67496    233.80807   -3126.9358   -2667.8052    55.258585    12140.034 
   40950    308.83932    233.77347   -3125.7822   -2666.4071    171.20865      12140.8 
   41000    303.06204    233.54861   -3118.2869   -2667.5051    474.06759    12141.456 
   41050    294.39995    238.17781    -3105.927   -2668.0294     819.6508    12142.185 
   41100    299.56408    238.31058   -3110.3526   -2664.7737     691.8624    12143.158 
   41150    288.71204    237.95693   -3098.5644   -2669.1271    1091.9717     12144.36 
   41200    308.61517     238.5761   -3119.2033   -2660.1616    518.43864    12145.907 
   41250    307.19074    238.42411   -3114.1368   -2657.2139    574.67612    12147.599 
   41300    294.87276    237.90436   -3096.8119    -2658.211    1041.1372    12149.438 
   41350     296.0548    237.90565   -3096.8551    -2656.496    928.83294    12151.646 
   41400    316.76587    238.66982   -3122.3274   -2651.1622    268.60526    12154.146 
   41450    307.81141     238.2802     -3109.34   -2651.4939    676.46466    12156.678 
   41500    301.41277    238.00095   -3100.0317    -2651.703    959.50348    12159.396 
   41550     307.3083    238.15697   -3105.2322   -2648.1344    775.22278    12162.435 
   41600    307.74958    238.18373   -3106.1243   -2648.3701    733.40035    12165.728 
   41650    315.29742     238.3457   -3111.5234   -2642.5424    552.53176    12169.242 
   41700     311.1662    238.22182    -3107.394   -2644.5579    706.72378    12172.887 
   41750    296.16532     237.5849   -3086.1635     -2645.64    1174.9464    12176.768 
   41800    292.44333    237.45549   -3081.8497   -2646.8624    1155.6854      12181.1 
   41850    299.58518     237.7494   -3091.6468   -2646.0366    891.53014    12185.883 
   41900    308.20216    237.86639   -3095.5462   -2637.1189    803.02629    12191.005 
   41950    308.40141    237.80228   -3093.4094   -2634.6857    794.02108    12196.406 
   42000    310.09249    237.81727   -3093.9089   -2632.6698    621.50447     12202.06 
   42050     311.2173    237.81931   -3093.9769   -2631.0647    477.04497    12207.879 
   42100    304.20305    237.63582   -3087.8606   -2635.3816    506.22239    12213.826 
   42150    316.01076    238.02846   -3100.9487   -2630.9066    139.27474    12219.845 
   42200    320.31373    238.12421   -3104.1405   -2627.6981    70.584522    12225.791 
   42250    315.22219    237.89144   -3096.3812   -2627.5121    283.29554    12231.607 
   42300    307.06636    237.51715    -3083.905    -2627.167    474.44042    12237.415 
   42350    306.58937    237.46676   -3082.2255    -2626.197    334.38528    12243.315 
   42400    302.50679    237.34685   -3078.2282   -2628.2723    462.05434    12249.242 
   42450    313.01053    237.69569   -3089.8565    -2624.277     220.7282    12255.235 
   42500    308.73434    237.52443   -3084.1478   -2624.9289    295.13938    12261.205 
   42550    303.96567    237.25916   -3075.3054   -2623.1795    402.00036    12267.179 
   42600    305.77223    237.40848   -3080.2828   -2625.4697    265.76982    12273.191 
   42650    306.31642    237.46267   -3082.0889   -2626.4665    203.23072    12279.181 
   42700    298.02976    237.19459   -3073.1529   -2629.8563    395.53334    12285.127 
   42750    309.38019    237.48149   -3082.7164   -2622.5368   -43.896526    12291.111 
   42800    312.80396    237.60289   -3086.7629   -2621.4907    -283.2576    12296.915 
   42850    295.62526    237.13727   -3071.2423   -2631.5222     156.3471    12302.421 
   42900    289.59522    237.00194   -3066.7312   -2635.9802    265.12046    12307.837 
   42950    291.73765     237.0111   -3067.0367   -2633.0991    182.84944     12313.23 
   43000    287.49228    236.83684   -3061.2281   -2633.6051    207.73196    12318.575 
   43050    303.57125    237.42447   -3080.8155   -2629.2763   -425.81518     12323.84 
   43100    295.44571    237.05864   -3068.6214   -2629.1683   -298.92496    12328.758 
   43150    306.10516    237.43518   -3081.1728   -2625.8645   -645.29658    12333.285 
   43200    297.06059    237.10867   -3070.2891    -2628.434   -359.09841    12337.318 
   43250    291.53312    236.89951   -3063.3171   -2629.6836   -153.75014    12340.966 
   43300    300.12459    237.20657   -3073.5523   -2627.1397   -448.34999    12344.321 
   43350    295.67793    237.00655   -3066.8851   -2627.0866    -357.2231     12347.27 
   43400    304.69166     237.2456   -3074.8533   -2621.6476   -611.18426    12349.818 
   43450    306.74041    237.38565   -3079.5216   -2623.2685   -746.14212    12351.848 
   43500    303.02966     237.1463   -3071.5432   -2620.8096   -649.98951    12353.288 
   43550    299.80323    237.05134   -3068.3781   -2622.4435   -554.04822    12354.166 
   43600     293.4941    236.79275   -3059.7584   -2623.2081   -318.79064    12354.555 
   43650    299.94261    237.04592   -3068.1972   -2622.0553   -444.85878    12354.563 
   43700    309.90763    237.41192   -3080.3973   -2619.4332   -711.86971    12354.135 
   43750    307.16031    237.35872    -3078.624   -2621.7463   -645.09042    12353.123 
   43800    311.26117    237.54537   -3084.8457   -2621.8683   -729.92002    12351.531 
   43850    308.30649    237.44134    -3081.378   -2622.7955     -581.455    12349.351 
   43900    295.10408    236.98864    -3066.288   -2627.3431   -126.68701    12346.654 
   43950    297.18124    237.07424   -3069.1412   -2627.1066   -210.37382     12343.64 
   44000     287.4065    236.78851   -3059.6169   -2632.1215   0.51502059    12340.326 
[...]
   89400    327.12059    260.36144    -3012.048   -2525.4809    804.15741    12422.417 
   89450    322.63257    260.20628   -3006.8759   -2526.9844    916.54688    12420.638 
   89500    319.46659    260.12198    -3004.066   -2528.8837    939.54311    12419.254 
   89550    321.90625    260.25875   -3008.6248   -2529.8137    850.80477    12418.274 
   89600    316.14381    260.14851   -3004.9503   -2534.7103    1105.9325    12417.673 
   89650    303.88131    259.70228    -2990.076   -2538.0756    1629.1476    12417.583 
   89700    305.93336    259.86081   -2995.3603   -2540.3076    1578.3459    12418.242 
   89750    308.40843    260.08342   -3002.7805   -2544.0464    1337.7322    12419.678 
   89800    323.08119    260.66341   -3022.1136   -2541.5548    807.09562    12421.707 
   89850    312.30221    260.30732   -3010.2441   -2545.7182    1092.1916    12424.101 
   89900    304.31494    259.93768   -2997.9228   -2545.2774    1341.7471    12426.978 
   89950    295.54819    259.62298   -2987.4327   -2547.8272    1479.6123    12430.481 
   90000    308.93448    260.28441   -3009.4804   -2549.9638    723.79194    12434.638 
   90050    312.73747    260.42907   -3014.3022   -2549.1289    377.95171    12439.106 
   90100    320.71775    260.74809   -3024.9365   -2547.8931    53.432056    12443.638 
   90150    310.46135    260.36085   -3012.0283   -2550.2405    331.92618    12448.093 
   90200    305.15985    260.19908    -3006.636   -2552.7339    400.70994    12452.588 
   90250    301.48657    260.11385   -3003.7949   -2555.3564    426.04847    12457.165 
   90300    297.09107    259.98915   -2999.6382   -2557.7378    582.73137    12461.853 
   90350    305.10529    260.31754   -3010.5848   -2556.7638    312.97762    12466.709 
   90400    303.34577    260.20238   -3006.7462   -2555.5423    407.22049    12471.624 
   90450     301.9916    260.21076   -3007.0254   -2557.8358    368.78078    12476.619 
   90500    312.80972    260.64526   -3021.5086   -2556.2279   -118.07473    12481.639 
   90550    308.44605    260.58116    -3019.372   -2560.5819   -82.205923    12486.477 
   90600    294.29924    260.09744    -3003.248   -2565.5002    310.67111    12491.145 
   90650    300.27388    260.42093   -3014.0309   -2567.3963  -0.77297957    12495.813 
   90700    301.43916    260.40972   -3013.6572   -2565.2893   -69.926573    12500.371 
   90750    301.30575    260.40209   -3013.4031   -2565.2336   -117.54794    12504.736 
   90800    298.83814    260.22735   -3007.5782   -2563.0791   -100.18675      12508.9 
   90850    290.70642    259.91451   -2997.1503   -2564.7466    62.455522    12512.881 
   90900    295.40476    260.08743   -3002.9142    -2563.522   -121.26629     12516.73 
   90950    292.64462    260.01321   -3000.4404   -2565.1537   -124.14903    12520.382 
   91000    296.17102    260.18797   -3006.2656   -2565.7336   -353.08519     12523.82 
   91050    310.10217    260.58323   -3019.4411   -2558.1877   -701.14067    12526.912 
   91100    288.35026    259.85419   -2995.1398   -2566.2406     87.71405    12529.539 
   91150    281.32551    259.65869   -2988.6231   -2570.1727    296.51451    12532.028 
   91200     279.0947    259.47153   -2982.3845   -2567.2522    390.62776    12534.563 
   91250    287.06548    259.76929   -2992.3097   -2565.3215    113.68064    12537.191 
   91300    303.04541     260.3111   -3010.3698   -2559.6128   -496.73861    12539.742 
   91350    297.30381    260.12724   -3004.2412   -2562.0243   -351.35134    12541.902 
   91400    283.03366    259.70894    -2990.298   -2569.3068    88.628296    12543.744 
   91450    287.42007    259.88285   -2996.0948   -2568.5793    -39.47458    12545.481 
   91500    293.83095    260.09328   -3003.1095   -2566.0582   -219.28868     12547.07 
   91550    306.00587    260.51413   -3017.1377   -2561.9771   -585.67138    12548.389 
   91600    296.11574    260.09351   -3003.1169   -2562.6672   -283.71813    12549.283 
   91650    288.40929    259.86453   -2995.4845   -2566.4975   -93.031254    12549.881 
   91700    298.20042    260.22371   -3007.4571   -2563.9066   -407.27144    12550.269 
   91750    294.48998    260.14698   -3004.8993   -2566.8678   -290.29046    12550.324 
   91800    288.97003    259.82194   -2994.0646   -2564.2436   -69.703749    12550.115 
   91850    308.09037    260.61046   -3020.3486   -2562.0875   -743.31207    12549.686 
   91900    303.54537     260.3774   -3012.5799   -2561.0791   -587.37609    12548.752 
   91950    283.39495    259.63671   -2987.8904   -2566.3619    110.54044    12547.388 
   92000    285.78964    259.62354   -2987.4514    -2562.361    91.258856    12545.937 
   92050       298.87    260.07208   -3002.4026   -2557.8561     -261.826    12544.403 
   92100    284.03597    259.50784   -2983.5947   -2561.1127    317.66444    12542.662 
   92150    288.15576    259.78037   -2992.6792   -2564.0693    198.83905    12540.944 
   92200     299.7315    260.18469   -3006.1563   -2560.3284   -148.05605    12539.226 
   92250    291.29679    259.78278   -2992.7592   -2559.4773     197.3742    12537.352 
   92300    297.47108    259.99188   -2999.7292   -2557.2635   -14.783872    12535.446 
   92350    307.42165    260.40923   -3013.6409   -2556.3745   -366.56978    12533.398 
   92400    305.30512    260.27382   -3009.1273    -2555.009   -259.58138    12531.051 
   92450    294.96412    259.84081   -2994.6937   -2555.9569    145.10965    12528.466 
   92500    295.52458    259.84093   -2994.6978   -2555.1274    156.36236    12525.829 
   92550     304.7751    260.10087   -3003.3623   -2550.0324   -111.27741    12523.158 
   92600    300.52588    259.87819   -2995.9397   -2548.9302    155.08783    12520.353 
   92650    299.01778    259.89933   -2996.6443    -2551.878    290.30355    12517.517 
   92700       305.89    260.13793   -3004.5976   -2549.6094    36.591541     12514.72 
   92750    307.43296      260.155   -3005.1665   -2547.8833   -8.8908188    12511.845 
   92800    298.52671    259.80077   -2993.3591   -2549.3232    332.99751    12508.884 
   92850    314.36668     260.4746   -3015.8199   -2548.2232   -139.12995    12505.946 
   92900    302.39931    259.98312   -2999.4373   -2549.6412    341.42156    12502.881 
   92950    290.36871    259.45927   -2981.9756   -2550.0741    858.82841    12499.909 
   93000    303.15241     259.8684   -2995.6134   -2544.6972    489.96633    12497.265 
   93050    311.06636    260.10486   -3003.4954   -2540.8077    241.02739    12494.812 
   93100    309.31988    260.09526   -3003.1754   -2543.0855     325.5219    12492.396 
   93150    307.37542    259.93765   -2997.9217    -2540.724    545.56901    12490.049 
   93200    308.99511    259.94233   -2998.0776   -2538.4708    583.14748    12487.901 
   93250    312.37457     260.0716   -3002.3868   -2537.7533     500.3576    12485.966 
   93300    312.54938    259.98382   -2999.4608   -2534.5673    524.66291    12484.221 
   93350    319.13218    260.29593   -3009.8644   -2535.1795    354.99143    12482.643 
   93400    317.84249    260.33026   -3011.0088   -2538.2422      568.534    12481.157 
   93450    313.53925    260.17228   -3005.7427   -2539.3768    893.49715    12479.867 
   93500    306.36225    259.95333   -2998.4444   -2542.7538    1096.0717    12478.957 
   93550    302.80481    259.83224   -2994.4081   -2544.0088    1038.8031    12478.541 
   93600    302.66003    259.73691   -2991.2302   -2541.0464    972.94205    12478.613 
   93650    319.70847    260.39007   -3013.0023   -2537.4602    425.35986    12479.078 
   93700    318.11446    260.35265    -3011.755   -2538.5839    496.80035     12479.69 
   93750    314.29385    260.18573    -3006.191   -2538.7027    647.56241    12480.443 
   93800    312.85095    260.11378   -3003.7926   -2538.4505    552.02079    12481.424 
   93850    324.87258    260.53908   -3017.9695   -2534.7461    130.16812    12482.563 
   93900    309.62741    260.01608    -3000.536   -2539.9887    628.37265    12483.711 
   93950    310.09414    260.00207   -3000.0689   -2538.8274    594.71605    12485.049 
   94000    308.57852    260.04096   -3001.3652   -2542.3781    506.26048     12486.59 
   94050       309.97    260.04583   -3001.5277   -2540.4708    396.03681    12488.284 
   94100    301.32632    259.63096   -2987.6987   -2539.4986    672.30344    12490.099 
   94150      306.814    259.88794   -2996.2647   -2539.9021    541.53035     12492.12 
   94200    287.38735    259.17349   -2972.4498   -2544.9829    1170.0787    12494.399 
   94250    308.17193    260.00206   -3000.0688   -2541.6864    483.28849    12497.107 
   94300    304.09896    259.93804   -2997.9345   -2545.6104    506.81641    12500.005 
   94350    315.68543    260.48922   -3016.3074   -2546.7492    53.750769    12503.025 
   94400    305.56979    260.04928   -3001.6428   -2547.1309    315.12008    12505.989 
   94450    302.26572    259.98388   -2999.4625   -2549.8652    341.29242    12508.974 
   94500    301.50436    260.04903   -3001.6344   -2553.1695    239.21707    12512.008 
   94550    299.30992    259.97578   -2999.1927   -2553.9919     288.7638    12515.043 
   94600    299.81224    259.97752   -2999.2506   -2553.3026    219.23203     12518.11 
   94650    313.07056    260.61305   -3020.4351   -2554.7664   -377.11289    12521.114 
   94700    313.16409    260.70885   -3023.6285   -2557.8206   -453.62448    12523.785 
   94750    301.72053    260.32498   -3010.8326   -2562.0461   -121.21003    12526.077 
   94800    291.11343    259.99459   -2999.8196   -2566.8104     62.59369    12528.162 
   94850    296.67615    260.31567   -3010.5223    -2569.239   -276.87422    12530.116 
   94900    280.67981    259.71143   -2990.3811   -2572.8912    186.49385    12531.841 
   94950    290.39573    260.07542   -3002.5139   -2570.5723   -198.68653    12533.491 
   95000    287.88931    260.02679   -3000.8929   -2572.6793   -177.73901    12534.921 
   95050    286.87112    255.04879   -3001.6262   -2574.9271   -173.70015    12536.106 
   95100    295.07295    255.47209   -3015.7364   -2576.8378   -572.20675    12537.036 
   95150    293.46926    255.49257    -3016.419   -2579.9057   -638.02837    12537.501 
   95200    287.14526    255.33196   -3011.0653   -2583.9585    -511.1425    12537.479 
   95250    285.18431    255.34895   -3011.6317   -2587.4416   -417.10414    12537.021 
   95300    277.25952    254.98675   -2999.5583   -2587.1558   -161.49106    12536.217 
   95350    298.71806    255.84005   -3028.0016   -2583.6811   -918.01573    12535.123 
   95400    283.42397    255.23899   -3007.9663   -2586.3946   -348.89543    12533.459 
   95450    280.09241    255.15933    -3005.311   -2588.6947   -98.849043    12531.435 
   95500    285.47004    255.38582   -3012.8607   -2588.2457   -224.04707    12529.227 
   95550    301.69289     256.0551     -3035.17   -2586.4247   -761.46275     12526.74 
   95600    292.22995    255.68716   -3022.9055   -2588.2356   -404.50825    12523.755 
   95650    290.77881    255.68154    -3022.718   -2590.2065   -323.25013    12520.399 
   95700    285.12499    255.47797   -3015.9325   -2591.8307   -164.96764    12516.755 
   95750    290.61334    255.64818   -3021.6058   -2589.3405   -350.09688    12512.888 
   95800    290.33696    255.58547   -3019.5157   -2587.6615     -296.906    12508.732 
   95850    287.61755     255.4164     -3013.88   -2586.0707   -121.66244    12504.298 
   95900    294.84276    255.74562   -3024.8542   -2586.2979   -340.36562    12499.651 
   95950    290.25678    255.53399   -3017.7997   -2586.0647   -162.15942    12494.741 
   96000    295.47704    255.88704   -3029.5682   -2590.0684   -250.59766    12489.608 
   96050    296.68966    255.96039    -3032.013   -2590.7096    -177.1962    12484.252 
   96100    302.49858    256.21631   -3040.5437      -2590.6   -365.11812    12478.687 
   96150    291.17858    255.79677   -3026.5589   -2593.4528   -10.918277    12472.843 
   96200    286.22582     255.6494   -3021.6466   -2595.9074    202.86243    12466.872 
   96250    285.09542    255.58161   -3019.3871   -2595.3292    337.60093    12460.932 
   96300      290.611    255.74002   -3024.6673   -2592.4055    224.16261    12455.086 
   96350    298.46411    255.93482   -3031.1607   -2587.2179   -52.934427    12449.272 
   96400    305.25621    256.11764   -3037.2547   -2583.2092   -240.79949    12443.319 
   96450    292.77001    255.73233    -3024.411   -2588.9378    265.97617    12437.168 
   96500    287.22968    255.48338   -3016.1128   -2588.8804     514.6373    12431.077 
   96550    302.01774    256.06526   -3035.5086   -2586.2801   -31.211254    12425.131 
   96600    289.54437      255.586   -3019.5332   -2588.8579     392.7097    12419.138 
   96650    280.10298     255.1727   -3005.7567   -2589.1248    810.13336    12413.277 
   96700    298.08618    255.84152   -3028.0506     -2584.67    352.05738    12407.723 
   96750    308.59341    256.21444   -3040.4812   -2581.4719    159.46059    12402.292 
   96800    308.83345    256.16161   -3038.7203   -2579.3539      384.319    12396.865 
   96850    293.06302    255.59886    -3019.962    -2584.053    1064.7105    12391.585 
   96900    303.81374     256.0796   -3035.9867   -2584.0868     717.7097    12386.753 
   96950    312.85239    256.44887   -3048.2958   -2582.9516    323.60528    12382.226 
   97000     292.0601    255.53382   -3017.7941   -2583.3769    1064.6666    12377.842 
   97050    294.21068    260.63414    -3021.138   -2583.5219    1127.5532    12373.923 
   97100    306.33624    260.99748   -3033.2495   -2577.5975    871.26695    12370.539 
   97150    301.96935    260.83931   -3027.9769   -2578.8204    1092.6491    12367.583 
   97200    294.73486    260.60154   -3020.0515   -2581.6557    1368.5412    12365.155 
   97250    304.17294    260.90314   -3030.1048   -2577.6706     1077.607    12363.352 
   97300    298.94881    260.69112   -3023.0374   -2578.3737    1174.4335    12362.068 
   97350     300.4723    260.76452   -3025.4839   -2578.5541     1089.173    12361.309 
   97400    297.34137    260.63679   -3021.2264   -2578.9536    1182.1294     12361.06 
   97450    302.19663     260.8179   -3027.2632   -2577.7686     1025.549    12361.338 
   97500    315.90748    261.33025   -3044.3416   -2574.4531    586.90299    12362.042 
   97550    302.94456     260.7175   -3023.9165   -2573.3095    1012.1351        12363 
   97600    301.42923    260.65303   -3021.7676   -2573.4145    1056.4943    12364.369 
   97650     294.5946    260.27133   -3009.0442   -2570.8571    1386.2289    12366.226 
   97700     310.5631    260.95337    -3031.779   -2569.8399    895.65992    12368.655 
   97750    309.55949     260.7948   -3026.4933    -2566.047    967.06441    12371.492 
   97800    319.34192    261.22896   -3040.9652   -2565.9683    672.54418    12374.678 
   97850     291.6371    260.10582   -3003.5273   -2569.7392     1643.469    12378.189 
   97900    301.19182    260.44648   -3014.8826   -2566.8826    1310.6972    12382.393 
   97950    322.13568    261.15453   -3038.4842   -2559.3318    571.80949    12387.162 
   98000    303.53578    260.51864   -3017.2879   -2565.8014    1210.2399    12392.179 
   98050    296.11711    255.21526   -3007.1754   -2566.7237    1484.6659    12397.683 
   98100     310.8326    255.74577    -3024.859    -2562.519    860.73495    12403.796 
   98150    310.78646    255.68915   -3022.9717   -2560.7004    816.88248    12410.241 
   98200    295.05756    255.09763   -3003.2544   -2564.3787    1295.8245    12416.995 
   98250     299.8872    255.22535   -3007.5116   -2561.4521    1145.3413    12424.237 
   98300     300.3884     255.2303   -3007.6768   -2560.8718    1030.5351    12431.954 
   98350     328.9809    256.20112   -3040.0372    -2550.703    54.872215    12440.001 
   98400    323.48154    255.86591   -3028.8637   -2547.7094    145.78192    12447.931 
   98450    319.76415    255.71654   -3023.8847   -2548.2597    208.86551    12455.725 
   98500    300.20071    254.96377   -2998.7922   -2552.2664    840.64457    12463.459 
   98550    288.95712    254.45197   -2981.7325   -2551.9307    1205.7142    12471.449 
   98600    305.72084    255.03478   -3001.1593   -2546.4227    577.87028    12479.867 
   98650    305.17062    255.07006   -3002.3354   -2548.4173     415.9254    12488.442 
   98700    310.72829    255.15652   -3005.2173   -2543.0325     236.7823    12497.037 
   98750    300.73404    254.61638   -2987.2127   -2539.8936    585.53129      12505.6 
   98800    314.94007    255.15658   -3005.2193   -2536.7698    6.4518804    12514.209 
   98850    314.75179    255.14348   -3004.7825   -2536.6131   -129.07471    12522.637 
   98900    299.51148    254.53019   -2984.3398   -2538.8392    315.16123    12530.815 
   98950    304.72532    254.60522   -2986.8406   -2533.5848     220.7563    12538.927 
   99000    313.43368    254.82453   -2994.1511   -2527.9422     24.84298    12546.946 
   99050    307.02146    254.52304   -2984.1014   -2527.4303    228.60608    12554.796 
   99100    303.00536    254.27449   -2975.8164   -2525.1189    347.40526    12562.565 
   99150    308.49322    254.47171   -2982.3903     -2523.53     156.7972    12570.299 
   99200    306.10772    254.24478   -2974.8261   -2519.5141    241.22005    12577.937 
   99250    310.48395     254.3058   -2976.8601   -2515.0387     207.1968    12585.475 
   99300    290.57523     253.5134   -2950.4468   -2518.2381    857.91541    12592.966 
   99350    306.49563    254.12954   -2970.9848   -2515.0958     264.4874    12600.651 
   99400    313.96232    254.31757   -2977.2524   -2510.2572   -129.67336    12608.304 
   99450    326.45001    254.72408   -2990.8028   -2505.2331   -625.43516    12615.658 
   99500    327.27407    254.71664   -2990.5546   -2503.7592   -575.33424    12622.437 
   99550    308.33472    254.03073   -2967.6909   -2509.0664    137.91539    12628.703 
   99600    300.19624    253.69267   -2956.4223   -2509.9031    439.82424    12634.823 
   99650     303.4903    253.79983   -2959.9944   -2508.5756    311.47301    12640.968 
   99700    317.75929    254.27851   -2975.9505   -2503.3076   -195.46809     12647.05 
   99750    308.86849    253.90524   -2963.5081   -2504.0896    71.595881    12652.862 
   99800     318.7575    254.23719    -2974.573   -2500.4453   -230.78017     12658.47 
   99850    316.89364    254.19096   -2973.0322   -2501.6769   -206.20123    12663.751 
   99900    316.11376    254.01745   -2967.2484   -2497.0532   -70.176295    12668.701 
   99950    302.92546    253.55306   -2951.7688   -2501.1901     353.5673    12673.437 
  100000     317.5052    254.09172   -2969.7239    -2497.459   -175.51417    12678.114 
Loop time of 27.3215 on 1 procs for 100000 steps with 500 atoms

Performance: 316.235 ns/day, 0.076 hours/ns, 3660.126 timesteps/s
99.7% CPU use with 1 MPI tasks x 1 OpenMP threads

MPI task timing breakdown:
Section |  min time  |  avg time  |  max time  |%varavg| %total
---------------------------------------------------------------
Pair    | 21.736     | 21.736     | 21.736     |   0.0 | 79.56
Bond    | 0.0082951  | 0.0082951  | 0.0082951  |   0.0 |  0.03
Neigh   | 0.53768    | 0.53768    | 0.53768    |   0.0 |  1.97
Comm    | 0.77143    | 0.77143    | 0.77143    |   0.0 |  2.82
Output  | 0.018379   | 0.018379   | 0.018379   |   0.0 |  0.07
Modify  | 2.7292     | 2.7292     | 2.7292     |   0.0 |  9.99
Other   |            | 1.521      |            |       |  5.57

Nlocal:    500 ave 500 max 500 min
Histogram: 1 0 0 0 0 0 0 0 0 0
Nghost:    1548 ave 1548 max 1548 min
Histogram: 1 0 0 0 0 0 0 0 0 0
Neighs:    14168 ave 14168 max 14168 min
Histogram: 1 0 0 0 0 0 0 0 0 0

Total # of neighbors = 14168
Ave neighs/atom = 28.336
Ave special neighs/atom = 0
Neighbor list builds = 652
Dangerous builds = 0

write_data      ${walker}/final_restart_file
write_data      9/final_restart_file

quit
