LAMMPS (19 May 2017)
Processor partition = 9
  using 1 OpenMP thread(s) per MPI task
# gREM variables
variable        lambda world 1000 1005 1010 1015 1020 1025 1030 1035 1040 1045 1050 1055 1060 1065 1070 1075
variable        walker world 0 1 2 3 4 5 6 7 8 9 10 11 12 13 14 15
variable        replica world 4 9 1 7 0 12 3 5 8 13 14 6 15 11 2 10

variable        T0 equal 300.0
variable        press equal 0.0

units           real
atom_style      full
pair_style      lj/cut 5.0

# LJ particles
read_data       ${walker}/restart_file
read_data       9/restart_file
  orthogonal box = (0.841172 0.841172 0.841172) to (24.1588 24.1588 24.1588)
  1 by 1 by 1 MPI processor grid
  reading atoms ...
  500 atoms
  reading velocities ...
  500 velocities
  0 = max # of 1-2 neighbors
  0 = max # of 1-3 neighbors
  0 = max # of 1-4 neighbors
  1 = max # of special neighbors

#dump            dump all xyz 1000 ${walker}/dump.xyz

fix             fxnpt all npt temp ${T0} ${T0} 1000.0 iso ${press} ${press} 10000.0
fix             fxnpt all npt temp 300 ${T0} 1000.0 iso ${press} ${press} 10000.0
fix             fxnpt all npt temp 300 300 1000.0 iso ${press} ${press} 10000.0
fix             fxnpt all npt temp 300 300 1000.0 iso 0 ${press} 10000.0
fix             fxnpt all npt temp 300 300 1000.0 iso 0 0 10000.0
fix             fxgREM all grem ${lambda} -.03 -30000 fxnpt
fix             fxgREM all grem 1045 -.03 -30000 fxnpt
thermo_modify   press fxgREM_press

thermo          50
thermo_style    custom step temp f_fxgREM pe etotal press vol
WARNING: New thermo_style command, previous thermo_modify settings will be lost (../output.cpp:705)
timestep        1.0

temper/grem     100000 1000 ${lambda} fxgREM fxnpt 10294 98392 ${walker}
temper/grem     100000 1000 1045 fxgREM fxnpt 10294 98392 ${walker}
temper/grem     100000 1000 1045 fxgREM fxnpt 10294 98392 9
Neighbor list info ...
  update every 1 steps, delay 10 steps, check yes
  max neighbors/atom: 2000, page size: 100000
  master list distance cutoff = 7
  ghost atom cutoff = 7
  binsize = 3.5, bins = 7 7 7
  1 neighbor lists, perpetual/occasional/extra = 1 0 0
  (1) pair lj/cut, perpetual
      attributes: half, newton on
      pair build: half/bin/newton
      stencil: half/bin/3d/newton
      bin: standard
Per MPI rank memory allocation (min/avg/max) = 5.72 | 5.72 | 5.72 Mbytes
Step Temp f_fxgREM PotEng TotEng Press Volume 
       0     317.5052    234.09172   -2969.7239    -2497.459   -175.51417    12678.114 
      50    322.33711    234.29377   -2976.4591    -2497.007   -291.93408    12677.909 
     100    317.68404    234.20871   -2973.6237   -2501.0928   -243.48823    12677.317 
     150     327.0526    234.45867   -2981.9557   -2495.4897   -633.59995    12676.335 
     200    325.23285     234.4502   -2981.6732    -2497.914   -668.64379    12674.779 
     250    322.26362    234.43833   -2981.2776   -2501.9349   -602.21254    12672.607 
     300    309.13377    233.93018   -2964.3393   -2504.5262   -262.17736    12669.884 
     350    329.84425    234.71544   -2990.5145   -2499.8962   -978.81518    12666.703 
     400    325.81847    234.59827   -2986.6091   -2501.9788   -909.30212    12662.776 
     450    316.01252    234.27559    -2975.853   -2505.8084   -468.91371    12658.105 
     500    323.11612    234.52586   -2984.1952   -2503.5845   -586.44648    12652.914 
     550    338.63225    235.07477   -3002.4924   -2498.8026   -1141.6972    12647.132 
     600    331.02713    234.81319    -2993.773   -2501.3952   -965.56215      12640.5 
     650    331.88445    234.98263   -2999.4209    -2505.768   -930.50524    12633.064 
     700    332.47324    235.10566   -3003.5221   -2508.9934    -932.2524    12624.873 
     750    321.60028    234.78077   -2992.6925   -2514.3364   -612.47879    12615.938 
     800     310.6434    234.51411   -2983.8038   -2521.7453   -214.15028    12606.431 
     850    308.28123    234.53059   -2984.3529   -2525.8079   -144.13899      12596.6 
     900    316.25177    234.90966   -2996.9886    -2526.588   -446.24106    12586.451 
     950    321.12443       235.14   -3004.6665   -2527.0183   -572.10971    12575.841 
    1000     328.7133    235.51583   -3017.1944   -2528.2583    -753.8804     12564.69 
    1050    313.02561    235.00159    -3000.053   -2534.4511   -169.00782    12552.953 
    1100     323.0442    235.34241   -3011.4137   -2530.9099   -379.50769    12540.874 
    1150    321.82295    235.42045   -3014.0151   -2535.3279   -375.59228    12528.394 
    1200    322.39323    235.52165   -3017.3885    -2537.853   -287.72388    12515.504 
    1250    319.82069    235.49902   -3016.6339   -2540.9249   -57.787724    12502.261 
    1300    300.71155      234.884   -2996.1335   -2548.8478    612.25965    12488.839 
    1350    320.16948    235.57806   -3019.2688   -2543.0409    16.965634    12475.523 
    1400    325.09559    235.88617    -3029.539    -2545.984   -135.26889    12462.074 
    1450      322.869      235.816   -3027.1999   -2546.9568    91.235143    12448.388 
    1500    313.41624    235.46207   -3015.4025   -2549.2196     534.2463    12434.595 
    1550    324.75453    235.92491   -3030.8302   -2547.7825    267.95169    12420.887 
    1600    323.58173    236.02823   -3034.2742   -2552.9709    308.01213    12407.178 
    1650    325.42666     236.1525   -3038.4166   -2554.3691    320.85407    12393.479 
    1700    323.17754    236.01859    -3033.953   -2553.2509    533.16195    12379.817 
    1750    313.33373    235.81468    -3027.156   -2561.0958    927.65924    12366.303 
    1800    328.99828    236.38142   -3046.0474   -2556.6874    627.13681    12353.127 
    1850    330.29962    236.48865   -3049.6216   -2558.3259    671.30205    12340.153 
    1900      320.833    236.23628   -3041.2093   -2563.9945    1016.9486    12327.419 
    1950     332.4372    236.78667   -3059.5556   -2565.0805     726.8354    12315.062 
    2000    325.42435    236.57959   -3052.6531    -2568.609    984.14248    12302.991 
    2050    337.47474    232.07464   -3069.1547   -2567.1866    641.96466    12291.273 
    2100    342.39478    232.26163   -3075.3878   -2566.1015    525.30617    12279.762 
    2150    328.26464    231.86749   -3062.2496   -2573.9808    1069.3469    12268.405 
    2200    315.64969    231.45953    -3048.651    -2579.146    1625.2938    12257.474 
    2250    323.80468    231.86473   -3062.1576   -2580.5227    1481.8468    12247.222 
    2300    316.54337    231.63991   -3054.6636   -2583.8293    1644.0231    12237.655 
    2350    319.92575    231.86548   -3062.1827   -2586.3174    1459.1249    12228.791 
    2400    324.10278    232.00855   -3066.9517   -2584.8734     1278.424     12220.55 
    2450    341.62377    232.64982   -3088.3272   -2580.1877     847.8736     12212.81 
    2500    320.66589    231.99152   -3066.3839   -2589.4177    1612.6989    12205.415 
    2550    315.47845    231.97894   -3065.9645   -2596.7142    1771.5502    12198.679 
    2600     324.3321    232.34871   -3078.2903   -2595.8709    1425.6015    12192.724 
    2650    323.14969    232.34682   -3078.2274   -2597.5667    1379.3037    12187.376 
    2700    325.07911    232.51518   -3083.8392   -2600.3086    1294.7712    12182.574 
    2750    318.00511    232.33702   -3077.9006   -2604.8921    1545.0938    12178.304 
    2800    314.72032    232.34678   -3078.2261   -2610.1035    1680.5377    12174.662 
    2850    314.17057    232.30341   -3076.7803   -2609.4754    1663.7974     12171.74 
    2900    330.32691    232.85932   -3095.3107   -2603.9745    1105.0917    12169.477 
    2950    318.41536     232.6269   -3087.5634   -2613.9446    1414.3588    12167.661 
    3000    320.33216    232.76476   -3092.1587   -2615.6889    1338.1588    12166.388 
    3050    328.11321     233.0214   -3100.7135   -2612.6699    960.53803    12165.621 
    3100    318.73177    232.70333    -3090.111   -2616.0216     1139.646      12165.2 
    3150    315.94297    232.70359   -3090.1195   -2620.1783    1203.4806    12165.178 
    3200    311.80131     232.6277     -3087.59   -2623.8092    1290.0472    12165.604 
    3250    328.70126    233.33704   -3111.2346   -2622.3164    731.35958    12166.465 
    3300    313.16085    232.88032   -3096.0106   -2630.2076    1128.5957    12167.547 
    3350     297.6594    232.34174    -3078.058   -2635.3122    1571.7631    12169.041 
    3400    300.69269    232.46479   -3082.1598   -2634.9022    1456.6391    12171.158 
    3450    297.99203     232.4342   -3081.1401   -2637.8995     1412.305    12173.862 
    3500    305.48999    232.73046   -3091.0155   -2636.6223    1006.3292    12177.097 
    3550    311.49525    232.98637   -3099.5456     -2636.22    720.14747    12180.661 
    3600     296.0706    232.48351   -3082.7836   -2642.4011     1172.343    12184.443 
    3650    317.16364    233.25527    -3108.509   -2636.7521     490.9576    12188.567 
    3700    308.04482    233.00152   -3100.0508   -2641.8575    643.28472    12192.795 
    3750     294.7685    232.59417   -3086.4722   -2648.0264    901.61716    12197.147 
    3800    302.94462    232.94695   -3098.2315   -2647.6244    504.58799    12201.737 
    3850    314.20386    233.38345   -3112.7816   -2645.4271     32.36676    12206.369 
    3900    308.62291    233.25231   -3108.4103   -2649.3571    105.38954    12210.821 
    3950     286.3533    232.52587   -3084.1957   -2658.2668    722.20689     12215.15 
    4000     299.1852    232.91353   -3097.1176   -2652.1023    284.33316    12219.574 
    4050    287.38114    237.53318   -3084.4393   -2656.9816    584.82605    12224.004 
    4100    297.27249    237.89373   -3096.4576   -2654.2873    322.95476    12228.521 
    4150    304.22335    238.14133   -3104.7112    -2652.202   -15.342254    12233.032 
    4200    314.01794    238.56592   -3118.8639    -2651.786    -499.3052    12237.298 
    4250    279.35209    237.36444   -3078.8146   -2663.2996    501.00686    12241.176 
    4300    283.25838    237.44871   -3081.6237   -2660.2983    357.13911    12245.067 
    4350     292.7843    237.83568   -3094.5227   -2659.0283   -49.210587    12248.944 
    4400    286.88865    237.71436   -3090.4786   -2663.7535   -37.984183    12252.632 
    4450    281.83649    237.53347   -3084.4491   -2665.2387   -11.147876    12256.107 
    4500    281.27703    237.54355   -3084.7851   -2666.4069   -86.479363     12259.38 
    4550      282.824    237.67201    -3089.067   -2668.3878   -176.99488    12262.421 
    4600    276.74031    237.44911   -3081.6368   -2670.0066    61.540649    12265.182 
    4650    285.11483    237.78511   -3092.8371   -2668.7504   -193.34759    12267.756 
    4700    289.83747    237.92234   -3097.4112   -2666.2999   -405.20831    12270.048 
    4750     290.1066    237.91611   -3097.2037   -2665.6921    -400.1213    12271.924 
    4800    280.12252    237.54164   -3084.7213   -2668.0603   -84.203436    12273.412 
    4850    274.39171     237.3383   -3077.9434   -2669.8065    25.591657    12274.672 
    4900    295.85634    238.03333   -3101.1109    -2661.047   -604.87634    12275.714 
    4950    282.17709    237.60602   -3086.8674   -2667.1504   -182.97546    12276.306 
    5000    280.89777    237.54428   -3084.8093   -2666.9951   -56.409556    12276.593 
    5050    304.52874    233.34385   -3111.4615   -2658.4981   -669.55625    12276.607 
    5100     292.7366    232.90332   -3096.7774   -2661.3539   -303.77228     12276.12 
    5150    294.44571    232.89483   -3096.4943   -2658.5287    -350.8197    12275.245 
    5200    289.43265    232.74292   -3091.4305   -2660.9214   -209.27655    12273.988 
    5250    288.33007     232.6697   -3088.9899   -2660.1208   -156.72532    12272.417 
    5300    303.58955    233.16894   -3105.6313   -2654.0648   -538.73362    12270.546 
    5350    295.88876    232.98271   -3099.4238   -2659.3117   -193.51165    12268.223 
    5400    295.19587     232.9129   -3097.0966   -2658.0151   -46.001421    12265.575 
    5450    281.37118     232.4227   -3080.7566   -2662.2383    418.01584     12262.74 
    5500    285.07839    232.52859   -3084.2864   -2660.2539    294.05378    12259.923 
    5550    305.99507    233.25947   -3108.6491   -2653.5046   -447.44533    12257.051 
    5600    296.69987    232.91186   -3097.0619   -2655.7433   -231.61987    12253.802 
    5650    290.92273    232.67446   -3089.1486   -2656.4231    56.619635    12250.226 
    5700    294.40108    232.76365   -3092.1217   -2654.2224    49.816007    12246.494 
    5750     298.0275    232.90732   -3096.9105   -2653.6172   -11.921676    12242.609 
    5800    294.21255    232.78493    -3092.831   -2655.2121    188.83682    12238.546 
    5850    298.15499    232.79967   -3093.3223   -2649.8393    214.61475    12234.396 
    5900    298.50211    232.78377   -3092.7925   -2648.7932    278.95577    12230.178 
    5950    306.53375    233.02584   -3100.8614   -2644.9156    66.659868    12225.909 
    6000    298.97773    232.85864    -3095.288   -2650.5813    265.57292     12221.52 
    6050    304.40251    232.97972    -3099.324   -2646.5484    217.08976     12217.08 
    6100    310.52765    233.15279   -3105.0929   -2643.2065    162.61515    12212.575 
    6150    303.21849    232.81424   -3093.8078   -2642.7933    431.52463    12207.996 
    6200    312.79449    233.18819   -3106.2729   -2641.0148     195.0828    12203.425 
    6250    309.53841    233.00849   -3100.2831   -2639.8682    401.36396    12198.805 
    6300    301.87907    232.77265   -3092.4217   -2643.3994    631.77314    12194.208 
    6350    295.94792    232.59779   -3086.5928   -2646.3927     809.8085    12189.763 
    6400     311.5716    233.06986   -3102.3285   -2638.8894    490.22297    12185.548 
    6450    323.36232    233.46659   -3115.5529    -2634.576    261.19628    12181.415 
    6500    322.07635    233.36986   -3112.3286   -2633.2644     435.6713    12177.245 
    6550    313.26365    233.15797   -3105.2657   -2639.3098    774.00747    12173.122 
    6600    312.08322    233.08333   -3102.7775   -2638.5774    923.62049    12169.208 
    6650    294.81065    232.44494   -3081.4978   -2642.9893    1472.9374    12165.636 
    6700    314.68379    233.07318   -3102.4394   -2634.3711    890.86481    12162.599 
    6750    315.48389    233.08256   -3102.7519   -2633.4935    847.58679     12159.89 
    6800    309.43406    232.83751   -3094.5835   -2634.3238     1033.695    12157.455 
    6850    308.08791    232.80848   -3093.6161   -2635.3587      1078.02    12155.382 
    6900    311.22128    232.95964   -3098.6546   -2635.7365    954.99047    12153.684 
    6950    308.19433    232.81262    -3093.754   -2635.3383    1113.3945     12152.31 
    7000    305.09803    232.79909   -3093.3029   -2639.4927    1224.1693     12151.33 
    7050    302.43991    237.67347   -3089.1157   -2639.2593    1215.1782    12150.826 
    7100    316.13339    238.09213   -3103.0711   -2632.8467     772.4111     12150.75 
    7150    304.82618    237.67569   -3089.1897   -2635.7839    1179.8879    12150.948 
    7200    295.62248    237.36707   -3078.9022   -2639.1862    1635.8734    12151.588 
    7250    308.86253    237.82812   -3094.2706    -2634.861    1298.9108    12152.882 
    7300      329.146    238.56167   -3118.7222   -2629.1425    647.59827    12154.656 
    7350    310.05091    237.88157   -3096.0523    -2634.875    1249.8268    12156.639 
    7400    300.25419    237.56166   -3085.3888   -2638.7834    1483.7218    12159.076 
    7450    307.75882     237.8429   -3094.7633   -2636.9954    1233.2531    12162.084 
    7500    304.61893    237.72966   -3090.9888   -2637.8912    1276.6727      12165.6 
    7550    320.00459    238.27838   -3109.2793   -2633.2967    667.32807    12169.559 
    7600     313.1097    238.01038   -3100.3461   -2634.6191     851.1123    12173.716 
    7650    317.64217    238.28533   -3109.5111   -2637.0424    642.14603    12178.089 
    7700     313.3337    238.21189   -3107.0628   -2641.0027    677.72014    12182.618 
    7750    299.15769    237.61136   -3087.0452   -2642.0708    1196.9348    12187.335 
    7800     298.5897     237.7029   -3090.0967   -2645.9671    1079.6683    12192.456 
    7850    301.21917    237.82188   -3094.0627    -2646.022    773.16336    12197.948 
    7900    299.46487    237.75541    -3091.847   -2646.4157    751.40711    12203.673 
    7950    303.14727    237.87487   -3095.8291   -2644.9205    582.49035    12209.596 
    8000    304.36661    238.01184   -3100.3947   -2647.6725    383.22367    12215.618 
    8050    299.79792    237.92168   -3097.3894   -2651.4628    328.12427    12221.648 
    8100    293.64797    237.79144    -3093.048   -2656.2689    331.84364    12227.668 
    8150    302.68903    238.07693   -3102.5644   -2652.3374    -40.33951    12233.635 
    8200    293.86942    237.75868    -3091.956   -2654.8475    140.31688     12239.41 
    8250    297.23502    237.92678   -3097.5594   -2655.4449    18.279912    12245.019 
    8300    288.79444    237.68047    -3089.349   -2659.7892    249.74337    12250.461 
    8350    292.52651    237.91084   -3097.0279   -2661.9169   -5.6992854    12255.807 
    8400    289.88273    237.81908   -3093.9693   -2662.7907   -80.660818    12260.966 
    8450    285.92681    237.71859   -3090.6198   -2665.3253   -3.1785386    12265.888 
    8500    279.09611    237.46997   -3082.3323    -2667.198    162.65018    12270.623 
    8550    282.45375    237.59371    -3086.457   -2666.3285   -91.747866     12275.23 
    8600    286.45827    237.76473   -3092.1576   -2666.0727   -307.54391    12279.589 
    8650    282.13537    237.65044   -3088.3481   -2668.6931   -254.77983    12283.596 
    8700    287.68584    237.91001   -3097.0002   -2669.0893   -547.46098    12287.241 
    8750      290.227     238.0215   -3100.7168   -2669.0262   -702.21703    12290.406 
    8800    294.13501    238.14444   -3104.8145    -2667.311   -800.28565    12292.996 
    8850    290.00457    238.02947   -3100.9823   -2669.6225   -737.97309    12294.949 
    8900    276.60371    237.59565   -3086.5217   -2675.0947   -431.79077    12296.329 
    8950    278.50043    237.67555   -3089.1852   -2674.9369   -585.64598    12297.263 
    9000    292.24915    238.13283   -3104.4278   -2669.7293   -1037.0365    12297.664 
    9050    268.68629    242.38517   -3079.5058   -2679.8553   -397.90061    12297.393 
    9100    279.79921    242.77853   -3092.6177   -2676.4376    -741.1915    12296.658 
    9150    276.31612    242.55904   -3085.3014   -2674.3021   -598.11588    12295.397 
    9200    265.40133    242.07565   -3069.1883   -2674.4239   -129.18517    12293.672 
    9250    283.24664    242.74235   -3091.4115   -2670.1036   -597.67205    12291.669 
    9300    285.70007    242.85064   -3095.0212    -2670.064   -686.06586    12289.215 
    9350    284.29343    242.86448   -3095.4826   -2672.6176   -605.09453    12286.218 
    9400    275.88033    242.51231   -3083.7436   -2673.3926   -290.52698    12282.753 
    9450    278.87195    242.60716   -3086.9053   -2672.1044   -387.99044    12278.958 
    9500     283.4623    242.76744    -3092.248   -2670.6193   -453.36615    12274.804 
    9550    282.20694    242.64207   -3088.0691   -2668.3077   -227.82331    12270.258 
    9600    284.59118    242.71918   -3090.6394   -2667.3316   -222.01613    12265.438 
    9650    290.66637    242.93724   -3097.9079   -2665.5637   -363.47148    12260.345 
    9700    277.61524    242.54123   -3084.7077   -2671.7761    77.121899    12254.937 
    9750    297.79165    243.11583   -3103.8609   -2660.9184   -442.82685    12249.378 
    9800     308.4485    243.44216   -3114.7386   -2655.9449   -568.07718    12243.455 
    9850    274.71662    242.11417   -3070.4723   -2661.8522    802.31218    12237.161 
    9900    280.61248    242.32834   -3077.6113   -2660.2215     664.3567    12231.099 
    9950    304.87578    243.13274   -3104.4245   -2650.9449   -76.328182    12225.243 
   10000    292.09264    242.53982   -3084.6607   -2650.1951    523.39739    12219.275 
   10050    298.41029     242.7113   -3090.3765   -2646.5138    471.20997    12213.408 
   10100    301.45288    242.87461   -3095.8203    -2647.432    355.72927    12207.667 
   10150    318.28431    243.47881   -3115.9604   -2642.5366   -76.282048    12201.946 
   10200    302.37181    242.87511   -3095.8371   -2646.0819     601.3888    12196.113 
   10250    287.18171    242.35011   -3078.3371   -2651.1761    1220.4194    12190.461 
   10300    292.19509    242.43282   -3081.0939   -2646.4758    1188.4655    12185.299 
   10350    302.71976    242.70753   -3090.2508   -2639.9781    957.37824     12180.64 
   10400    306.31861    242.74731    -3091.577   -2635.9512    972.58989    12176.355 
   10450    310.91344     242.9461   -3098.2033   -2635.7431    937.42355    12172.426 
   10500     314.2751    243.06225   -3102.0751   -2634.6147    955.73671    12168.848 
   10550     297.6364    242.43411    -3081.137   -2638.4254    1528.4417    12165.666 
   10600    305.05354    242.66615   -3088.8717   -2635.1276    1273.8198    12163.101 
   10650    303.86541    242.62642   -3087.5475   -2635.5707    1345.8963    12161.076 
   10700    309.40509    242.81365   -3093.7883   -2633.5717    1228.5231    12159.598 
   10750    312.73545    242.91663   -3097.2209   -2632.0506     1112.613    12158.624 
   10800    304.22038    242.61561   -3087.1869   -2634.6821    1400.5672    12158.101 
   10850    320.36818     243.1922   -3106.4067   -2629.8833    896.23703     12158.12 
   10900    317.12594    243.07989   -3102.6629   -2630.9621    960.93234     12158.49 
   10950    302.29922      242.612   -3087.0668   -2637.4196    1440.9954    12159.218 
   11000    308.59644    242.88842   -3096.2805   -2637.2667    1256.1648    12160.521 
   11050    311.29679     242.9928     -3099.76   -2636.7297    1239.4006    12162.348 
   11100    306.71899    242.79298   -3093.0993   -2636.8781    1448.3155    12164.662 
   11150    304.68665    242.61924   -3087.3081   -2634.1098    1475.2309    12167.566 
   11200    309.87336    242.75387   -3091.7956   -2630.8825    1180.9949    12171.077 
   11250    296.05879    242.29885   -3076.6282   -2636.2632    1546.5907    12175.065 
   11300    295.78085    242.37164   -3079.0548   -2639.1032    1400.0332    12179.675 
   11350    310.58464    242.92001   -3097.3335   -2635.3624    773.10795    12184.836 
   11400    294.10571     242.3087   -3076.9567   -2639.4968    1243.1481    12190.285 
   11450    310.12835    242.84205   -3094.7348   -2633.4424    727.86052    12196.146 
   11500    318.99879    243.18955   -3106.3183   -2631.8318    314.99394    12202.209 
   11550    303.44553    242.61374   -3087.1248   -2635.7725    764.77294    12208.288 
   11600    303.41887    242.65561   -3088.5204   -2637.2078    648.18849    12214.559 
   11650    306.36045    242.77247   -3092.4156   -2636.7277    382.67047    12220.977 
   11700     292.8417    242.31226   -3077.0754   -2641.4956    764.25362    12227.437 
   11750    300.50915    242.57155   -3085.7184   -2638.7338    415.71786    12234.087 
   11800    298.67816    242.48321   -3082.7736   -2638.5124    305.60122    12240.786 
   11850    298.03916    242.43757   -3081.2524   -2637.9417    247.75154    12247.441 
   11900    307.02519    242.75052    -3091.684   -2635.0073   -45.300697    12254.014 
   11950    304.67268    242.71792   -3090.5973   -2637.4198    18.433634    12260.401 
   12000    298.21417    242.46309   -3082.1029   -2638.5319     190.5054    12266.608 
   12050    294.76517      242.321   -3077.3666   -2638.9257    246.62781    12272.711 
   12100    309.09103    242.69298    -3089.766   -2630.0165   -160.14869    12278.718 
   12150    301.70635    242.45259   -3081.7529   -2632.9875    87.739918    12284.464 
   12200    277.29127    241.68324    -3056.108   -2643.6582    731.16669    12290.086 
   12250    284.32891     242.0154   -3067.1799   -2644.2622    405.25518    12295.865 
   12300    294.88016    242.34082   -3078.0274   -2639.4155    71.903561    12301.691 
   12350    294.21753    242.29246   -3076.4153   -2638.7891    41.874231    12307.377 
   12400    289.31575    242.11024   -3070.3414   -2640.0061    75.200097    12312.884 
   12450    297.18726    242.42584   -3080.8614   -2638.8179   -227.00001    12318.207 
   12500    296.53955    242.34666   -3078.2222   -2637.1421   -180.25552    12323.237 
   12550    294.37209     242.2873   -3076.2434   -2638.3873   -138.44065     12327.97 
   12600    280.19827    241.77083   -3059.0278   -2642.2541    208.17941    12332.454 
   12650    298.35002    242.39201   -3079.7336   -2635.9605   -519.11357    12336.789 
   12700    306.41624    242.61303   -3087.1012   -2631.3302   -816.17451    12340.667 
   12750    293.54363    242.12762   -3070.9206   -2634.2967     -370.998     12343.93 
   12800    307.06758    242.64473   -3088.1575   -2631.4178   -841.53224    12346.738 
   12850    302.97127    242.54255   -3084.7516   -2634.1048   -746.08327    12348.923 
   12900    287.06681    241.97296   -3065.7655   -2638.7753   -122.83707    12350.526 
   12950    281.79202    241.81648   -3060.5492   -2641.4049   -22.413054     12351.87 
   13000    296.94499     242.3369   -3077.8967   -2636.2136   -550.54808    12352.979 
   13050     283.1928    241.88621   -3062.8738   -2641.6459   -109.71148    12353.665 
   13100    284.09762    241.94866   -3064.9553   -2642.3816   -206.27701    12354.093 
   13150     288.5989    242.07018   -3069.0061   -2639.7371   -463.17914    12354.221 
   13200    290.09602     242.0571   -3068.5701   -2637.0743   -502.01878    12353.932 
   13250    289.51566    242.04531   -3068.1772   -2637.5446   -440.88064    12353.193 
   13300    286.33497    241.89423    -3063.141   -2637.2394   -245.32888    12352.058 
   13350    294.15894    242.13186    -3071.062   -2633.5229   -357.91754     12350.61 
   13400    293.55236    241.99218   -3066.4059    -2629.769   -195.86315    12348.813 
   13450      285.496    241.66129   -3055.3762   -2630.7225    51.220142    12346.754 
   13500    299.70264    242.16369    -3072.123   -2626.3381   -443.42829    12344.517 
   13550    296.58279    241.94111   -3064.7036   -2623.5592   -188.13248    12341.918 
   13600    283.87743    241.51901   -3050.6336   -2628.3874    388.98697    12339.054 
   13650    292.23331    241.83924    -3061.308   -2626.6331    164.01381    12336.222 
   13700    316.99617    242.62006   -3087.3355   -2615.8277   -581.61196     12333.29 
   13750    304.75426     242.0961   -3069.8699   -2616.5711   -171.14705    12329.944 
   13800    301.46496    241.96338   -3065.4458   -2617.0396    65.006032    12326.313 
   13850    293.42334    241.67605   -3055.8684   -2619.4234    437.83774    12322.565 
   13900    300.35087    241.82719   -3060.9065   -2614.1573    303.16771    12318.889 
   13950    311.37455    242.12831   -3070.9438   -2607.7977    10.251088    12315.225 
   14000    304.12514    241.83289   -3061.0964   -2608.7333     220.0861    12311.452 
   14050    313.97397    242.24495   -3074.8316   -2607.8191   -65.725513    12307.594 
   14100    302.72801    241.68728   -3056.2426   -2605.9577    487.21819    12303.591 
   14150    300.85542    241.59912   -3053.3039   -2605.8042    638.28381     12299.68 
   14200    313.06063    242.07691   -3069.2305   -2603.5765    339.25882    12295.927 
   14250     296.7079    241.45925   -3048.6416   -2607.3111    1006.8146    12292.273 
   14300    304.25481    241.68587   -3056.1957   -2603.6397     897.8198    12288.975 
   14350    314.77081    242.06815   -3068.9384   -2600.7407    581.07851    12286.005 
   14400    313.76503    242.02302   -3067.4339   -2600.7322    635.17365    12283.222 
   14450    315.77867    242.04272   -3068.0907   -2598.3939     563.2304    12280.611 
   14500    327.97259    242.38569   -3079.5229   -2591.6885    217.39017    12278.116 
   14550    326.30909    242.36099   -3078.6995   -2593.3395    358.39859    12275.594 
   14600    307.59307    241.62136   -3054.0452   -2596.5238    1068.0729    12273.127 
   14650    320.12711    242.08399   -3069.4663   -2593.3015    764.85612    12271.004 
   14700    325.01994    242.22447   -3074.1489   -2590.7063    603.21637    12269.149 
   14750    325.59919    242.29374   -3076.4578   -2592.1537    569.83658    12267.438 
   14800    305.96685    241.59231   -3053.0771   -2597.9746    1161.8347    12265.918 
   14850    310.72838    241.79796   -3059.9319    -2597.747    979.29563    12264.808 
   14900    305.03318    241.53068   -3051.0228   -2597.3091    1188.8768    12264.086 
   14950    295.72318     241.2214   -3040.7132   -2600.8473    1468.8756    12263.852 
   15000    303.44145    241.60216   -3053.4055   -2602.0593    1201.0787    12264.209 
   15050    305.70909    246.64359   -3054.7863   -2600.0672    1052.1862     12265.07 
   15100    315.05321    246.95835   -3065.2785   -2596.6607    622.85996    12266.325 
   15150    319.84938    247.22709   -3074.2362   -2598.4845    336.21593    12267.753 
   15200     312.2874    246.89116   -3063.0387   -2598.5349    577.42827    12269.214 
   15250    299.47789    246.47555   -3049.1851   -2603.7344    1035.2021    12270.819 
   15300    297.67201    246.43235   -3047.7451   -2604.9805    1104.7458      12272.8 
   15350    300.65511    246.57219   -3052.4063   -2605.2046    988.45026    12275.217 
   15400    309.30201    246.84928   -3061.6428   -2601.5795    747.39339     12277.99 
   15450    308.44307    246.81084   -3060.3613   -2601.5756    750.04911    12281.004 
   15500    304.34687    246.68648    -3056.216   -2603.5231    870.34963    12284.259 
   15550    301.91315    246.62779   -3054.2597   -2605.1867    878.28332    12287.813 
   15600    301.41687    246.59319   -3053.1064   -2604.7716    796.26097    12291.661 
   15650    284.42196    245.94587   -3031.5291    -2608.473    1289.0694    12295.813 
   15700    292.24308    246.29238   -3043.0793   -2608.3899    971.58677    12300.439 
   15750    310.60674    247.00482   -3066.8274   -2604.8234    220.26076    12305.405 
   15800    302.78261    246.67064    -3055.688   -2605.3218    422.78781    12310.355 
   15850    285.04579    246.06517   -3035.5058   -2611.5218    965.62371    12315.365 
   15900     312.4791    247.01139   -3067.0464   -2602.2575     12.94695    12320.641 
   15950    305.63428    246.78816   -3059.6052   -2604.9974    156.13243    12325.782 
   16000    276.77961    245.78786    -3026.262   -2614.5733     1055.934    12330.857 
   16050    286.92712    251.16577    -3038.859   -2612.0767    718.60592    12336.272 
   16100    292.88154    251.40869   -3046.9563   -2611.3172    376.16033    12341.919 
   16150    303.53406    251.78263   -3059.4211   -2607.9372    -138.7411    12347.582 
   16200    297.79597    251.58666   -3052.8888   -2609.9398   -109.65353    12353.018 
   16250    299.58685    251.69281   -3056.4272   -2610.8144   -198.52051    12358.194 
   16300     284.3937    251.11234   -3037.0781   -2614.0641    243.97895    12363.122 
   16350    287.86345    251.25602   -3041.8673   -2613.6922    156.06189    12367.971 
   16400    283.68743     251.0805   -3036.0167   -2614.0531    360.00178    12372.775 
   16450    289.26121    251.23937   -3041.3122   -2611.0581    82.142594    12377.584 
   16500    308.23983    252.02086   -3067.3621   -2608.8787    -671.7671    12382.214 
   16550    286.07194     251.1646   -3038.8201   -2613.3098    36.919309    12386.385 
   16600    286.38349    251.20804    -3040.268   -2614.2943    103.95521    12390.359 
   16650    304.59626     251.8837   -3062.7901   -2609.7262   -505.27904    12394.186 
   16700    305.05261    251.84806   -3061.6021   -2607.8595   -504.08743    12397.599 
   16750    299.90063    251.64781   -3054.9271   -2608.8476     -217.134    12400.567 
   16800    290.85685    251.31895    -3043.965   -2611.3375   -4.9730782     12403.25 
   16850    294.96153    251.57188    -3052.396   -2613.6631   -329.01281    12405.732 
   16900    277.58568     250.9661   -3032.2033   -2619.3156    149.63129    12407.919 
   16950    285.67124    251.20674   -3040.2246   -2615.3102   -48.968251    12409.988 
   17000    293.91874    251.41122   -3047.0407   -2609.8589   -321.92666    12411.884 
   17050    302.75839    246.68157   -3056.0524   -2605.7222   -631.25635    12413.426 
   17100     296.8443    246.41073   -3047.0243   -2605.4909   -467.13773    12414.472 
   17150    296.71155    246.50517   -3050.1724   -2608.8365   -474.74667    12415.072 
   17200    298.74264    246.57169   -3052.3897   -2608.0327   -422.96588    12415.241 
   17250    296.80657    246.59089   -3053.0298   -2611.5525   -328.70976    12415.011 
   17300    298.90271     246.6899   -3056.3299   -2611.7348   -433.23048    12414.426 
   17350    290.33798    246.30242    -3043.414   -2611.5583   -146.68873    12413.473 
   17400    293.20492    246.41521   -3047.1736   -2611.0535   -220.17036     12412.25 
   17450    288.90987    246.30298   -3043.4326   -2613.7011   -228.63476    12410.754 
   17500    292.19147    246.39121   -3046.3737    -2611.761   -430.96091    12408.959 
   17550     283.6181    246.00736   -3033.5786   -2611.7182   -108.11714    12406.819 
   17600    287.03151    246.04714   -3034.9046    -2607.967   -67.350607    12404.457 
   17650    288.70671    246.19755   -3039.9184   -2610.4891   -52.201565    12401.904 
   17700     291.9774    246.35214   -3045.0714   -2610.7772   -80.967403    12399.179 
   17750    302.55226    246.68919   -3056.3064   -2606.2828   -300.92464    12396.252 
   17800     297.7867     246.4705   -3049.0168   -2606.0817   -38.933732    12393.038 
   17850    293.09236    246.21428   -3040.4759   -2604.5232    200.19556     12389.66 
   17900    301.29149    246.46812   -3048.9375   -2600.7892  -0.23751673    12386.226 
   17950    288.46784    246.05353   -3035.1176   -2606.0435    393.31064    12382.696 
   18000    294.06358    246.22116   -3040.7055   -2603.3082    204.49474     12379.21 
   18050    307.17135     246.6663   -3055.5433   -2598.6492   -183.63358    12375.683 
   18100    295.34163    246.17368   -3039.1228   -2599.8245    366.67021    12371.977 
   18150    303.63638    246.35876   -3045.2921    -2593.656    264.09168    12368.298 
   18200    306.13252     246.4494   -3048.3132   -2592.9643    246.41868    12364.637 
   18250    300.93888    246.23967   -3041.3225   -2593.6987    460.35235    12360.992 
   18300    317.96917    246.82915   -3060.9718   -2588.0167   -78.555405    12357.422 
   18350    322.20042    246.85698   -3061.8993   -2582.6506   -173.43279      12353.7 
   18400    315.93119     246.6456   -3054.8535   -2584.9298     68.61683    12349.743 
   18450    302.49978    246.24226   -3041.4086   -2591.4631    502.70563    12345.697 
   18500    314.81176    246.66528   -3055.5093   -2587.2506    236.94564     12341.75 
   18550    310.59203     246.4997   -3049.9898   -2588.0077    577.86652    12337.836 
   18600    304.19648    246.20107   -3040.0358   -2587.5666    939.29505     12334.11 
   18650    309.23828    246.35803   -3045.2678   -2585.2992     812.8783    12330.745 
   18700    315.34233    246.61471   -3053.8236   -2584.7758    592.30246    12327.691 
   18750    310.24946    246.38845   -3046.2817   -2584.8092    896.77501    12324.846 
   18800    297.66602    245.90989   -3030.3297   -2587.5741    1352.4624    12322.358 
   18850    302.33451    246.05491   -3035.1637   -2585.4641    1157.2694    12320.441 
   18900    309.32111     246.2378     -3041.26   -2581.1683    964.19439     12319.02 
   18950    314.84707    246.41645   -3047.2149   -2578.9038    746.98204    12317.972 
   19000     316.8332    246.63376   -3054.4586   -2583.1932    524.47874    12317.173 
   19050    312.33353    251.45887    -3048.629   -2584.0566    680.46769    12316.536 
   19100    316.50061    251.58715   -3052.9051   -2582.1344    612.97771    12316.108 
   19150    309.16131    251.29191   -3043.0638   -2583.2097    883.65577    12315.887 
   19200    295.33512    250.80009   -3026.6697   -2587.3811    1333.3655    12316.014 
   19250    301.33814    251.06427   -3035.4758   -2587.2581      1192.81    12316.687 
   19300    297.29411    250.96937   -3032.3125     -2590.11    1409.3254    12317.906 
   19350    299.59499    251.02053   -3034.0176   -2588.3927    1406.2684    12319.735 
   19400    291.47515    250.73055   -3024.3517   -2590.8046    1581.4954    12322.188 
   19450    301.21584    251.02302   -3034.1007   -2586.0649    1115.5498    12325.322 
   19500    324.24644    251.82463   -3060.8209   -2578.5289    278.73058    12328.867 
   19550    311.97037    251.36812   -3045.6041   -2581.5718    637.41969    12332.456 
   19600    300.28393    251.03625   -3034.5415   -2587.8919    934.32293     12336.21 
   19650    304.34727     251.1908   -3039.6933   -2586.9998    780.06609    12340.284 
   19700    306.11619    251.19718   -3039.9059   -2584.5813    669.82009     12344.62 
   19750    306.82073    251.25976   -3041.9919   -2585.6194    565.33448     12349.14 
   19800    304.76527    251.14175   -3038.0584   -2584.7432    654.40541    12353.801 
   19850    290.73072    250.71593   -3023.8644   -2591.4245    1048.2266    12358.665 
   19900    304.59108    251.26349   -3042.1162   -2589.0601     464.3835    12363.873 
   19950    311.28739    251.50859   -3050.2865   -2587.2701    190.37166     12369.17 
   20000    288.70283    250.69759    -3023.253   -2593.8294    913.87451    12374.441 
   20050    293.94833    255.90969   -3030.3229   -2593.0971    628.24986    12379.985 
   20100    296.82843    255.98674   -3032.8912   -2591.3814    391.01114    12385.714 
   20150    296.48424     255.9487   -3031.6234   -2590.6255    430.38972    12391.496 
   20200    288.19103    255.69446   -3023.1487   -2594.4863    728.90089    12397.368 
   20250    285.87068    255.57557   -3019.1858   -2593.9748    686.09069    12403.456 
   20300    310.57549    256.32886   -3044.2952   -2582.3377   -291.69787    12409.694 
   20350    300.45946    256.00467    -3033.489   -2586.5784   -24.391164     12415.66 
   20400    285.82187    255.40426   -3013.4755   -2588.3371    503.30343     12421.44 
   20450    291.52744    255.67002    -3022.334   -2588.7091     211.8905     12427.28 
   20500    303.99344     256.1323   -3037.7434   -2585.5762   -230.79388     12433.05 
   20550    289.19654    255.53381   -3017.7936   -2587.6357    274.82664    12438.578 
   20600    282.14498     255.3323   -3011.0767   -2591.4074    516.52312    12444.061 
   20650    281.64197    255.35304   -3011.7679   -2592.8468    456.44126     12449.64 
   20700    276.47915    255.15412   -3005.1373   -2593.8955    500.57583    12455.317 
   20750    289.36455    255.58827   -3019.6091   -2589.2013   -24.966776    12461.062 
   20800    293.76621    255.66115   -3022.0385   -2585.0835   -264.84444    12466.631 
   20850    295.63087    255.63565   -3021.1884   -2581.4599   -329.82074    12471.875 
   20900    297.74146    255.73618   -3024.5394   -2581.6715   -458.15574    12476.745 
   20950    305.33296    256.07152   -3035.7175   -2581.5578   -786.40264    12481.164 
   21000    292.09271    255.58216   -3019.4053   -2584.9395   -380.58163    12485.011 
   21050    287.34009    260.35698   -3011.8993   -2584.5026   -153.89244    12488.464 
   21100    291.06614    260.47254   -3015.7512   -2582.8124   -226.41981    12491.669 
   21150    291.59788    260.45723   -3015.2411   -2581.5113   -249.92521    12494.605 
   21200    296.02861    260.59404   -3019.8015   -2579.4813   -431.33445    12497.236 
   21250    278.69975    259.99288   -2999.7628    -2585.218    124.28035    12499.526 
   21300    273.11985    259.64311   -2988.1035   -2581.8585    349.12304    12501.732 
   21350    289.01215    260.26218   -3008.7394   -2578.8557   -175.58281    12503.948 
   21400    291.20412    260.33065   -3011.0218   -2577.8777   -272.62614    12505.963 
   21450    295.83687    260.40652   -3013.5506   -2573.5157   -370.99421    12507.691 
   21500    299.32171    260.55342   -3018.4475   -2573.2291   -499.63008     12509.07 
   21550    296.41443    260.31681   -3010.5605   -2569.6665   -355.48154    12510.058 
   21600     299.7263    260.52095    -3017.365   -2571.5448   -459.03754    12510.694 
   21650    303.47161    260.51947   -3017.3156   -2565.9246   -527.58848    12510.936 
   21700    297.54804     260.2624   -3008.7466   -2566.1664   -226.33711    12510.772 
   21750    294.95892    260.11497   -3003.8322   -2565.1032    16.591619    12510.355 
   21800    285.74857    259.72775   -2990.9252   -2565.8958    417.00929    12509.842 
   21850    298.01184    260.05874   -3001.9581   -2558.6881    103.46712      12509.4 
   21900    303.62864    260.23772   -3007.9239   -2556.2994   -86.566493    12508.919 
   21950    302.61014    260.14565   -3004.8551   -2554.7454    -26.23898    12508.298 
   22000    310.31226    260.37321   -3012.4404   -2550.8744   -257.55498    12507.517 
   22050    307.95572    260.30559   -3010.1862   -2552.1254    -243.8293    12506.481 
   22100    301.79159    260.03952   -3001.3173   -2552.4251   -7.8294814    12505.192 
   22150    300.62605    259.97415   -2999.1384     -2551.98    171.14423    12503.775 
   22200    302.28101    259.95675   -2998.5582   -2548.9381    167.84747    12502.358 
   22250     314.0078    260.29124   -3009.7079   -2542.6451   -176.96967    12500.899 
   22300     313.2826    260.25448   -3008.4826   -2542.4984   -78.665838    12499.246 
   22350     308.9479    260.00367   -3000.1225   -2540.5859    166.44142    12497.439 
   22400    301.25677    259.71401   -2990.4671   -2542.3704     441.2357    12495.629 
   22450    305.91393    259.92286   -2997.4285   -2542.4047     335.0176    12493.942 
   22500     305.9792    259.86971   -2995.6568    -2540.536    382.61286    12492.352 
   22550    323.54446     260.5081   -3016.9368   -2535.6889    -154.7702     12490.83 
   22600    311.67464    260.07471   -3002.4902   -2538.8978     310.9491    12489.181 
   22650    313.94452    260.12953   -3004.3178   -2537.3491    285.37614    12487.554 
   22700      313.145    260.17154   -3005.7179   -2539.9385    289.37338    12485.972 
   22750    310.62202    259.99561   -2999.8536   -2537.8269    472.16757     12484.46 
   22800    310.62693    260.15273   -3005.0911   -2543.0571    496.97561    12483.099 
   22850    303.11327    259.77667   -2992.5556   -2541.6976    765.05625    12481.931 
   22900    304.53901    259.79869   -2993.2896   -2540.3109    725.35867    12481.062 
   22950    296.38687    259.41168   -2980.3894   -2539.5364    1041.6981    12480.518 
   23000    304.30296     259.7833   -2992.7767   -2540.1491     825.7134    12480.404 
   23050    306.06307    259.90997   -2996.9989   -2541.7533    840.88555    12480.653 
   23100    298.46408    259.54212   -2984.7372   -2540.7945     1178.085    12481.275 
   23150    299.24509    259.66788   -2988.9293    -2543.825    962.76024    12482.395 
   23200    307.46535    259.96658   -2998.8861   -2541.5547    552.07028    12483.918 
   23250    307.80323    259.92238   -2997.4128   -2539.5788    470.23933    12485.646 
   23300    313.31213    260.15879   -3005.2931    -2539.265    215.20946    12487.474 
   23350    316.22213    260.38406   -3012.8021   -2542.4457    83.108117    12489.275 
   23400     308.1844    260.13309   -3004.4362   -2546.0353    426.11136    12491.019 
   23450    300.13315    259.87188   -2995.7295   -2549.3042     761.7255    12492.838 
   23500    301.17158    259.77292   -2992.4306   -2544.4607    689.21259    12494.936 
   23550    297.37235    259.68022   -2989.3407   -2547.0218    677.31346    12497.295 
   23600    303.20231    259.75869   -2991.9562   -2540.9657    552.47846     12499.85 
   23650    307.89087    259.84041   -2994.6805   -2536.7161    332.12161    12502.584 
   23700    320.90388    260.37251    -3012.417   -2535.0968    -215.2769    12505.333 
   23750     302.6114    259.76395   -2992.1318   -2542.0203    287.90988    12507.865 
   23800    300.12362    259.75167   -2991.7223   -2545.3112    338.36361    12510.379 
   23850    302.33124    259.79086   -2993.0287   -2543.3339    283.85476    12512.938 
   23900     305.6094    260.02189   -3000.7297   -2546.1589    63.758993    12515.498 
   23950    314.75414    260.39867    -3013.289    -2545.116   -415.63331    12517.932 
   24000    315.07655    260.39439   -3013.1463   -2544.4938   -410.25913     12519.99 
   24050    298.27269    259.74139   -2991.3797   -2547.7217    191.78554    12521.711 
   24100    319.53815    260.59451    -3019.817   -2544.5282   -571.88999    12523.306 
   24150    307.05646    260.17267   -3005.7557   -2549.0325   -238.66494    12524.499 
   24200    299.02496    259.85348   -2995.1159    -2550.339    25.015662    12525.419 
   24250    299.54745    259.94505   -2998.1683   -2552.6142   -43.339097    12526.191 
   24300    290.49252    259.65348   -2988.4492   -2556.3636    76.626461    12526.833 
   24350    307.81527    260.27139   -3009.0464   -2551.1945   -567.89076    12527.355 
   24400    306.95224    260.32297   -3010.7656   -2554.1974   -549.14167    12527.461 
   24450    304.09411    260.20427   -3006.8089    -2554.492   -441.77722    12527.137 
   24500    301.99306    260.24717   -3008.2392   -2559.0474   -377.27011    12526.425 
   24550    296.58841    260.10276   -3003.4255   -2562.2727     -117.275    12525.409 
   24600    299.70225    260.24962   -3008.3208   -2562.5364   -175.53804    12524.201 
   24650      290.777    259.81986   -2993.9955   -2561.4867    149.29308    12522.813 
   24700    287.87686     259.7795     -2992.65    -2564.455      163.823    12521.393 
   24750    295.62651    260.18995   -3006.3317   -2566.6097   -147.22363    12519.933 
   24800    287.15964    259.90194   -2996.7313   -2569.6031    192.95446     12518.33 
   24850    286.16804    259.78223   -2992.7411   -2567.0878    325.49666    12516.723 
   24900    295.85206    260.27224   -3009.0748   -2569.0173   -29.787864    12515.162 
   24950    284.99563    259.87268   -2995.7559   -2571.8465    334.00865    12513.524 
   25000    295.93214    260.33859   -3011.2863   -2571.1097    15.470059    12511.919 
   25050    287.66727    265.08366   -3002.7888   -2574.9055     310.6974    12510.274 
   25100    289.73578    265.18363   -3006.1209   -2575.1609    210.06269    12508.681 
   25150    297.07717    265.47616    -3015.872   -2573.9923   -181.94265     12507.11 
   25200    297.10498    265.39482   -3013.1607   -2571.2395   -181.97676    12505.368 
   25250    282.05691    264.88376   -2996.1254   -2576.5871    232.31368    12503.465 
   25300    291.69211    265.33303   -3011.1011   -2577.2312   -243.51534    12501.554 
   25350    289.70563     265.3171   -3010.5701    -2579.655   -237.81905    12499.452 
   25400    282.11386    265.08689   -3002.8964   -2583.2734    87.673552    12497.159 
   25450    289.44596    265.37336   -3012.4452   -2581.9163   -185.25691    12494.816 
   25500     295.5494    265.55345   -3018.4483   -2578.8409   -522.26878    12492.299 
   25550    303.48556    265.94037   -3031.3455   -2579.9338   -848.79952    12489.388 
   25600    287.93289    265.38948   -3012.9826   -2584.7042    -386.3098    12485.977 
   25650    292.00546    265.57154   -3019.0514   -2584.7154   -504.47437    12482.243 
   25700    292.55148    265.69683   -3023.2276   -2588.0794   -457.39349    12478.154 
   25750    282.80432    265.34606   -3011.5354   -2590.8854   -45.586075    12473.756 
   25800    288.59945    265.61007   -3020.3358    -2591.066   -188.37187    12469.237 
   25850    298.43283    266.01134   -3033.7113   -2589.8151   -416.73171    12464.561 
   25900    292.98635    265.85026   -3028.3421   -2592.5471   -169.35146    12459.613 
   25950    279.24204    265.28317   -3009.4392   -2594.0878    348.98996    12454.539 
   26000    271.34972    265.05459   -3001.8195   -2598.2074    620.15241    12449.602 
   26050    280.22412    265.55423   -3018.4744   -2601.6622    260.41773    12444.925 
   26100    284.14959    265.83966   -3027.9885   -2605.3375    57.097994    12440.368 
   26150    278.18262    265.54936   -3018.3119   -2604.5363    317.31512     12435.82 
   26200    276.90041    265.52675   -3017.5582   -2605.6898    388.27528    12431.382 
   26250    279.14455    265.71746   -3023.9154    -2608.709    216.17242    12427.094 
   26300    301.87373    266.66035   -3055.3449   -2606.3307   -636.68922    12422.823 
   26350     295.0658    266.36746   -3045.5819   -2606.6939   -405.52658    12418.211 
   26400    281.21127    265.91966   -3030.6554   -2612.3749    131.57339     12413.33 
   26450    274.54956    265.76703   -3025.5676   -2617.1959    346.43884     12408.46 
   26500     280.8685    266.01126   -3033.7088   -2615.9382    138.73132    12403.689 
   26550     276.3628    265.92165   -3030.7216   -2619.6528    237.52016    12398.963 
   26600    276.68086    266.08119   -3036.0398    -2624.498    153.12717    12394.328 
   26650    277.72787    266.12398   -3037.4661   -2624.3669    83.260781    12389.725 
   26700    279.61664    266.27467    -3042.489   -2626.5804    8.3478989     12385.11 
   26750    273.37211     266.1298   -3037.6599   -2631.0396    272.23525     12380.48 
   26800    278.80117      266.347      -3044.9   -2630.2044    226.55941    12375.931 
   26850     279.4314    266.41386   -3047.1288   -2631.4958    238.10657    12371.464 
   26900    286.84683    266.64763    -3054.921   -2628.2581   -8.5676263    12367.054 
   26950    278.52327    266.38046   -3046.0154   -2631.7331    338.29581    12362.627 
   27000    274.99645    266.35378    -3045.126   -2636.0896    461.45783     12358.32 
   27050    272.31657    266.17802   -3039.2672    -2634.217    498.86301    12354.223 
   27100    281.03267    266.58758   -3052.9194   -2634.9046    129.02172    12350.317 
   27150    286.99358    266.84584   -3061.5279   -2634.6467   -132.36758    12346.438 
   27200    296.10518    267.09387   -3069.7956   -2629.3616   -336.54004    12342.411 
   27250    279.92817    266.54124   -3051.3747   -2635.0027    267.34714    12338.192 
   27300    280.82815    266.54392   -3051.4639   -2633.7533     310.1339    12334.037 
   27350    289.50456    266.93878   -3064.6259   -2634.0098   -1.0897281    12329.971 
   27400    280.45177    266.65908   -3055.3027   -2638.1519    280.16317    12325.891 
   27450    287.07314    266.88756   -3062.9188   -2635.9193    150.14248    12321.885 
   27500    286.90836    266.80018    -3060.006   -2633.2516    259.06321    12317.927 
   27550    283.50939    266.55007    -3051.669   -2629.9702    565.34694    12314.058 
   27600    268.34645    266.02392   -3034.1307   -2634.9856    1190.5112    12310.462 
   27650    284.53782    266.50942    -3050.314   -2627.0855    718.36673    12307.402 
   27700    283.81905    266.51338    -3050.446   -2628.2867    740.60969    12304.715 
   27750    290.76148    266.76255   -3058.7518   -2626.2662    713.67211    12302.343 
   27800    281.88539    266.41725   -3047.2416   -2627.9585    1185.7719    12300.327 
   27850    287.32009    266.64429   -3054.8095   -2627.4427    1013.5177    12298.848 
   27900    302.64785    267.15719   -3071.9064   -2621.7407    478.21113    12297.819 
   27950    294.86334    266.73192   -3057.7307   -2619.1439    775.03166     12297.01 
   28000    291.39299    266.56911   -3052.3036   -2618.8787    908.26317     12296.52 
   28050    296.21243    261.77407   -3059.1355    -2618.542    688.08207    12296.423 
   28100    294.03583    261.63031   -3054.3438   -2616.9878    804.89136    12296.614 
   28150     290.7699    261.39363   -3046.4542    -2613.956    1037.5764    12297.135 
   28200    282.42473    261.02234   -3034.0779   -2613.9925    1367.3973    12298.128 
   28250    297.38233    261.47637   -3049.2122   -2606.8785    900.86024    12299.699 
   28300     304.5797    261.81599   -3060.5331   -2607.4939    651.29607    12301.655 
   28350    295.48636    261.45384   -3048.4613   -2608.9477    1026.9342     12303.86 
   28400    287.11458    261.08499   -3036.1663   -2609.1051    1302.8203     12306.51 
   28450    308.08141    261.73309   -3057.7696   -2599.5218    648.37857    12309.692 
   28500    306.89115    261.70283    -3056.761   -2600.2836    599.73478    12313.128 
   28550     306.6028    261.60196   -3053.3986   -2597.3502    578.49654    12316.744 
   28600    301.29632    261.35808   -3045.2694   -2597.1139     846.1478    12320.557 
   28650    294.81626    261.04954   -3034.9847   -2596.4678     1180.504    12324.696 
   28700    290.36965    260.80774   -3026.9246   -2595.0217    1271.9784     12329.33 
   28750     307.0996    261.43608   -3047.8694   -2591.0821    571.70403    12334.469 
   28800    297.10604    261.03626   -3034.5421   -2592.6194    795.66976    12339.831 
   28850    292.02838    260.72541   -3024.1803   -2589.8102    989.93603    12345.463 
   28900    285.30149    260.53029   -3017.6764    -2593.312    1194.6469    12351.508 
   28950    292.22007    260.71793   -3023.9311   -2589.2759    837.47508     12358.04 
   29000    310.73638    261.38229   -3046.0764   -2583.8795     119.1351    12364.857 
   29050    303.38425    261.11942   -3037.3139   -2586.0528    312.78368    12371.627 
   29100    304.37343    261.16871   -3038.9571   -2586.2247    190.75705    12378.378 
   29150    302.49921    261.11628   -3037.2092   -2587.2646    143.52219    12385.077 
   29200     299.9909     260.9827   -3032.7567   -2586.5429    192.77958    12391.696 
   29250    294.13633    260.81526   -3027.1754   -2589.6699    435.84866    12398.281 
   29300    294.85398     260.7655   -3025.5166   -2586.9437    477.08145    12404.939 
   29350    297.05639    260.90302   -3030.1008   -2588.2519    269.42919      12411.7 
   29400    305.18249    261.21487   -3040.4955   -2586.5597   -80.058813    12418.427 
   29450    296.70277    260.78866   -3026.2887   -2584.9658     209.0599    12424.982 
   29500    298.39188    260.82512    -3027.504   -2583.6687    80.773073    12431.481 
   29550     300.4078    260.90107   -3030.0358   -2583.2019   -114.10827    12437.854 
   29600    285.37085    260.27392   -3009.1307   -2584.6632    354.68154    12444.049 
   29650    289.67737    260.38704   -3012.9015   -2582.0283     175.9659    12450.272 
   29700    306.92346    261.01084   -3033.6948   -2577.1694   -438.45677    12456.403 
   29750    289.03946    260.30145   -3010.0484   -2580.1241    249.40996    12462.201 
   29800    289.13738    260.37696   -3012.5653   -2582.4954     264.1188     12467.94 
   29850    296.52949    260.62945   -3020.9817   -2579.9165   -92.880331    12473.647 
   29900    298.44024    260.76762   -3025.5873   -2581.6801   -341.83633    12479.139 
   29950    304.60291    260.90846    -3030.282   -2577.2083   -700.59745    12484.289 
   30000    312.21254    261.17306   -3039.1021   -2574.7096   -919.48746     12488.87 
   30050    278.85569    259.83363   -2994.4544   -2579.6777    251.56362    12492.866 
   30100    298.55038    260.59904    -3019.968    -2575.897   -478.53433    12496.739 
   30150    308.91639    260.98181   -3032.7268   -2573.2371     -861.504    12500.221 
   30200     290.1163    260.28319   -3009.4397   -2577.9137   -163.53819    12503.123 
   30250    302.09646    260.58385   -3019.4617   -2570.1161   -435.60299    12505.736 
   30300    294.45207    260.34057   -3011.3524   -2573.3773   -175.51386    12508.017 
   30350    291.79874    260.23945   -3007.9818   -2573.9533   -38.514134    12510.045 
   30400    293.72217    260.33391   -3011.1305    -2574.241   -91.263759    12511.912 
   30450    300.28384    260.51608   -3017.2026   -2570.5532   -293.13355    12513.586 
   30500    303.56168    260.62601    -3020.867    -2569.342   -488.25456    12514.961 
   30550    299.74328    260.43811   -3014.6036   -2568.7582   -363.89205    12515.927 
   30600    295.32233    260.21539   -3007.1795   -2567.9099   -180.01022    12516.569 
   30650    303.72373    260.55939   -3018.6462   -2566.8802   -572.33025    12516.951 
   30700    292.24917    260.18926   -3006.3086   -2571.6101   -271.13994     12516.92 
   30750    285.41814    259.86043   -2995.3478   -2570.8099    76.175749    12516.628 
   30800    294.02507    260.09422   -3003.1408   -2565.8008   -228.73789    12516.235 
   30850    314.12436    260.91429   -3030.4764   -2563.2403   -1029.3669    12515.549 
   30900    308.41479    260.77135   -3025.7116   -2566.9679   -878.83091    12514.215 
   30950    294.86541    260.16101   -3005.3669    -2566.777    -261.0504    12512.296 
   31000     297.5947    260.25162   -3008.3875   -2565.7379   -241.77482    12510.083 
   31050    312.43334    260.86994    -3028.998   -2564.2771   -663.73374    12507.606 
   31100    306.67979     260.5299   -3017.6633   -2561.5003   -376.21349    12504.686 
   31150    310.81171    260.70091   -3023.3636   -2561.0547   -430.47608    12501.401 
   31200     292.5068    259.99588   -2999.8626   -2564.7809    190.53371    12497.834 
   31250    303.84244    260.45742   -3015.2475   -2563.3049    -170.4733    12494.207 
   31300    306.25539    260.46301   -3015.4338   -2559.9021   -212.72137    12490.414 
   31350    312.38998    260.72829   -3024.2763   -2559.6199   -386.17138     12486.38 
   31400    306.99283    260.47296   -3015.7652   -2559.1366   -120.47925    12482.077 
   31450    305.08429    260.35378   -3011.7926   -2558.0028    84.725323      12477.6 
   31500    304.17123    260.35622   -3011.8741   -2559.4424    167.66451    12473.065 
   31550    312.92868    260.66676   -3022.2252   -2556.7675   -179.66722    12468.511 
   31600    304.78594     260.3954   -3013.1798   -2559.8339    67.956219    12463.785 
   31650    308.55636    260.50746   -3016.9153   -2557.9611    34.679951    12458.963 
   31700    302.51912    260.24435    -3008.145   -2558.1707    229.94184    12454.081 
   31750    305.34866    260.41943   -3013.9811   -2559.7981    136.70476     12449.21 
   31800    314.87157    260.68173   -3022.7243   -2554.3767    44.335861    12444.308 
   31850    304.39398     260.3283   -3010.9434   -2558.1804    574.47852     12439.36 
   31900    295.71487    260.00085   -3000.0283   -2560.1749    995.30532    12434.652 
   31950    318.50158    260.91528   -3030.5093   -2556.7623    295.74942    12430.344 
   32000    322.95952    261.04891   -3034.9636   -2554.5858    155.92007    12426.133 
   32050    302.70758    260.27478   -3009.1593   -2558.9047    832.72938    12421.953 
   32100    296.64187    259.95693   -2998.5642   -2557.3319    1142.1729    12418.108 
   32150    287.46205    259.69519   -2989.8395   -2562.2615    1481.3014     12414.81 
   32200    319.20282     260.8547   -3028.4899   -2553.6999    399.82044    12412.152 
   32250    325.34068    261.16996   -3038.9988   -2555.0792    45.333007    12409.648 
   32300    316.13144     260.8508     -3028.36   -2558.1384    303.41509    12407.097 
   32350    316.29479    260.85297   -3028.4323   -2557.9678      392.564    12404.578 
   32400    304.40864    260.40725   -3013.5748     -2560.79    852.02675    12402.175 
   32450    316.13859    260.85225   -3028.4084   -2558.1762    379.93654    12400.101 
   32500    315.59828     260.8828   -3029.4267   -2559.9981    283.80405    12398.153 
   32550    311.48623    260.73621   -3024.5403   -2561.2281    453.76832    12396.253 
   32600    303.01691    260.43698    -3014.566   -2563.8513    777.34111    12394.517 
   32650    315.03486    261.01553   -3033.8509   -2565.2604    342.80339    12393.038 
   32700    312.27664    260.90478   -3030.1594   -2565.6716    406.58421    12391.683 
   32750     298.8909    260.42278   -3014.0928   -2569.5152    870.85978    12390.459 
   32800    298.83596    260.58083    -3019.361   -2574.8651    835.97139    12389.574 
   32850    303.47375    260.74409    -3024.803   -2573.4088     712.0634    12389.039 
   32900    306.58961    260.91128   -3030.3761   -2574.3473    595.92482    12388.771 
   32950    308.64115    261.12459   -3037.4862   -2578.4059    424.54557    12388.711 
   33000    307.09655    261.10356   -3036.7855   -2580.0026    401.81915    12388.771 
   33050    308.69573    261.23078   -3041.0261   -2581.8646    247.75354    12388.933 
   33100     303.5836     261.0645   -3035.4834   -2583.9258    364.54966    12389.123 
   33150    284.55712    260.41847   -3013.9491    -2590.692    937.90409    12389.427 
   33200     279.6167     260.2305   -3007.6835   -2591.7748    1051.0563    12390.115 
   33250    286.14398    260.48586   -3016.1955    -2590.578    731.95761    12391.259 
   33300    288.89656    260.73457   -3024.4855   -2594.7738    487.78902    12392.697 
   33350    287.72287     260.8263   -3027.5433   -2599.5774    377.67594    12394.301 
   33400    311.28982    261.68514   -3056.1713   -2593.1513   -340.00963     12395.95 
   33450    293.56891    261.05735   -3035.2449   -2598.5834    303.54211    12397.368 
   33500    289.13652     260.9211   -3030.7035   -2600.6348    378.77291    12398.812 
   33550    310.38592    261.75785   -3058.5952   -2596.9196   -509.14922    12400.286 
   33600    291.66571    261.11472   -3037.1572   -2603.3266    3.3416298    12401.437 
   33650    289.81424    261.05992   -3035.3308   -2604.2541     65.49945    12402.433 
   33700     298.0754    261.44253   -3048.0843   -2604.7197   -259.50916    12403.334 
   33750    304.15562    261.78711   -3059.5703   -2607.1618   -539.43868    12403.969 
   33800    294.11857    261.37334   -3045.7781    -2608.299   -274.09217    12404.209 
   33850    304.21529    261.79216   -3059.7388   -2607.2416   -703.03641    12404.126 
   33900    295.85734    261.44151   -3048.0504    -2607.985   -480.11774    12403.576 
   33950    283.24866     261.0847   -3036.1567   -2614.8458   -31.925124    12402.634 
   34000    279.79135    260.84204   -3028.0681   -2611.8997    132.91629    12401.559 
   34050    289.10024    256.25771   -3041.9238   -2611.9091   -266.00712     12400.41 
   34100    295.99087    256.44162   -3048.0541   -2607.7901    -412.9854    12398.997 
   34150    299.06621    256.53425   -3051.1415   -2606.3032   -373.37569    12397.232 
   34200    294.41222    256.46572   -3048.8573   -2610.9415    -164.4762    12395.131 
   34250    286.74232    256.26012   -3042.0041   -2615.4966    7.4221801    12392.825 
   34300    288.78368    256.26445   -3042.1485   -2612.6046   -94.161227    12390.403 
   34350    301.42321    256.73513   -3057.8378   -2609.4936   -457.07296    12387.779 
   34400    290.75327    256.36758   -3045.5859   -2613.1124    -122.5876    12384.813 
   34450    288.43068    256.37924   -3045.9747   -2616.9559   -110.62962    12381.642 
   34500    295.33121    256.55976   -3051.9919   -2612.7091   -243.81053    12378.283 
   34550    296.83791    256.61619    -3053.873   -2612.3492   -235.38124    12374.672 
   34600     300.8103    256.75102   -3058.3673   -2610.9347   -320.14639    12370.797 
   34650    287.18341    256.21339   -3040.4464   -2613.2829    260.96221     12366.65 
   34700    298.82787    256.68905   -3056.3018    -2611.818   -24.757344    12362.473 
   34750    302.12597    256.74405   -3058.1349   -2608.7454   -77.829058    12358.177 
   34800     292.3491    256.49684   -3049.8947   -2615.0475    234.72621    12353.728 
   34850    287.29258    256.29392   -3043.1307   -2615.8047    355.56207    12349.295 
   34900    300.59932    256.79396   -3059.7987     -2612.68   -86.701297    12344.901 
   34950    290.45357    256.43408   -3047.8026   -2615.7749    320.05511    12340.391 
   35000    284.65678    256.25787   -3041.9291   -2618.5237    659.84052    12335.935 
   35050     293.0555    251.59031   -3053.0104   -2617.1125    505.63207    12331.702 
   35100    297.55622    251.72061   -3057.3538   -2614.7614    345.13332    12327.623 
   35150    298.52121    251.71388   -3057.1292   -2613.1015    331.61246    12323.612 
   35200    305.98038    252.04094   -3068.0314   -2612.9087    164.33835    12319.627 
   35250    301.07701    251.84993   -3061.6644   -2613.8351    391.26988    12315.617 
   35300    294.50742     251.4779   -3049.2633   -2611.2058    725.25761    12311.689 
   35350    299.16458    251.68684   -3056.2279   -2611.2433    620.40812    12307.983 
   35400     298.6622    251.62686   -3054.2286   -2609.9912    624.40918      12304.5 
   35450    306.26425    251.88552   -3062.8506   -2607.3057    355.02781    12301.217 
   35500    305.83908    251.85192   -3061.7307   -2606.8182    437.18485    12298.012 
   35550    292.57076    251.31806   -3043.9353   -2608.7584    1004.2943    12294.933 
   35600    302.35425    251.61757    -3053.919   -2604.1899    809.23864    12292.224 
   35650    314.68196    252.14274   -3071.4246   -2603.3591    416.13099    12289.806 
   35700    307.77561    251.95274   -3065.0913   -2607.2984    617.39542    12287.509 
   35750    304.53134    251.80243   -3060.0809   -2607.1136    684.07859      12285.4 
   35800    312.78974    252.09543   -3069.8477   -2604.5967    360.67498      12283.5 
   35850     304.2454    251.77575   -3059.1916   -2606.6497    663.17795    12281.697 
   35900    299.95986    251.61619   -3053.8731   -2607.7055    889.10082    12280.099 
   35950    310.54001    251.98944   -3066.3148   -2604.4101    515.73316    12278.809 
   36000    323.26089     252.4012   -3080.0401    -2599.214      96.3621    12277.659 
   36050    304.05522    246.67637   -3055.8791     -2603.62    776.45037    12276.472 
   36100    302.90888    246.72688   -3057.5627   -2607.0087    879.90446    12275.504 
   36150    300.50495     246.5848   -3052.8265   -2605.8482    985.61336     12274.88 
   36200    319.61818    247.33162   -3077.7206   -2602.3128    330.30441    12274.598 
   36250    313.70539    247.15742   -3071.9139   -2605.3009    542.90525     12274.39 
   36300    291.26149    246.32005   -3044.0015   -2610.7721    1308.9548    12274.338 
   36350    307.87721    246.80447   -3060.1492   -2602.2051    803.69546    12274.781 
   36400    311.02425    246.97723   -3065.9076   -2603.2826    690.62954    12275.531 
   36450    303.08907    246.76471   -3058.8236   -2608.0016    899.34506     12276.52 
   36500    319.12023    247.32313   -3077.4376   -2602.7704    339.27726    12277.796 
   36550    318.84965    247.31372   -3077.1239   -2602.8592     327.4346    12279.115 
   36600     305.6294    246.87554    -3062.518   -2607.9174    720.07884    12280.476 
   36650      305.149     246.9436   -3064.7868   -2610.9008     678.7991    12282.025 
   36700    306.94568     247.0581   -3068.6032   -2612.0448    584.18007    12283.782 
   36750    313.26133    247.24632   -3074.8774   -2608.9249    305.02607    12285.711 
   36800    322.18553    247.52357    -3084.119   -2604.8924   -11.113448    12287.619 
   36850    308.79592     247.0207   -3067.3565    -2608.046    353.20861    12289.392 
   36900    304.93704    246.96655   -3065.5517    -2611.981    441.74559    12291.166 
   36950    293.44777    246.58647   -3052.8824   -2616.4011    719.91522    12293.055 
   37000    313.15334    247.33457    -3077.819   -2612.0272    41.382004    12295.118 
   37050    293.81886     246.6241   -3054.1367   -2617.1034     699.3503    12297.128 
   37100     310.0433    247.22491   -3074.1636   -2612.9977    204.17648    12299.288 
   37150     308.5908    247.16499   -3072.1662   -2613.1608    96.068526    12301.427 
   37200    300.45314    246.97602   -3065.8673    -2618.966    238.50902    12303.455 
   37250    301.61869    247.01581   -3067.1937   -2618.5588    150.42871    12305.441 
   37300    294.64924     246.7895   -3059.6501   -2621.3817    297.72447    12307.356 
   37350    290.84004    246.76532   -3058.8438   -2626.2413    344.16383    12309.262 
   37400    291.41317    246.77095   -3059.0318   -2625.5767    319.27338    12311.192 
   37450    282.53001    246.45498   -3048.4992   -2628.2572    560.92474    12313.164 
   37500    300.24305    247.14539   -3071.5129   -2624.9242   -124.68202    12315.227 
   37550    297.55264    247.00817   -3066.9389   -2624.3519   -197.56599    12317.113 
   37600    300.81966     247.1806   -3072.6866   -2625.2402   -325.54193     12318.72 
   37650    287.82608    246.65607   -3055.2022   -2627.0827    112.27446    12320.028 
   37700    310.31452     247.5294   -3084.3134   -2622.7441   -680.36612    12321.145 
   37750    304.55994    247.42963   -3080.9878    -2627.978   -567.29887    12321.789 
   37800    287.37233    246.84139   -3061.3796   -2633.9351   -24.817579    12321.987 
   37850    287.14678     246.8692   -3062.3067   -2635.1976    45.923772    12321.989 
   37900    291.03702    247.07779   -3069.2598   -2636.3643   -15.821144    12321.853 
   37950    282.98684    246.80134   -3060.0448   -2639.1233    192.02968     12321.58 
   38000     297.0933      247.262   -3075.4001   -2633.4964     -322.115    12321.207 
   38050    282.62957    246.80969   -3060.3231    -2639.933    76.893317    12320.547 
   38100    294.37867    247.21035   -3073.6783   -2635.8123   -286.17095     12319.73 
   38150     291.6956     247.2226   -3074.0866   -2640.2115   -227.94021    12318.628 
   38200    282.70335    246.96855   -3065.6182   -2645.1184    129.71731     12317.25 
   38250    290.57203    247.26439   -3075.4796   -2643.2757   -184.00719    12315.761 
   38300    292.80563    247.44273   -3081.4242    -2645.898   -378.35123    12314.021 
   38350     290.0541     247.3609   -3078.6968   -2647.2633   -347.55053    12311.935 
   38400    297.69054    247.60116   -3086.7052   -2643.9131   -512.94736    12309.488 
   38450    290.03385    247.36444   -3078.8145   -2647.4112   -231.00599    12306.638 
   38500    302.24279    247.74776   -3091.5921   -2642.0288   -612.62343    12303.454 
   38550    287.26658    247.30717   -3076.9055   -2649.6183   -183.65282    12299.824 
   38600     289.2451    247.33065   -3077.6884   -2647.4582    -147.1983    12295.904 
   38650    295.42512    247.53115   -3084.3716   -2644.9491   -319.51527    12291.733 
   38700      295.909    247.61245   -3087.0817   -2646.9395   -412.09865    12287.228 
   38750     288.9208    247.46894   -3082.2979   -2652.5501   -210.61337    12282.349 
   38800    285.63784    247.28187   -3076.0623   -2651.1976   -46.659512    12277.206 
   38850    289.27446    247.44175   -3081.3918    -2651.118    -110.9666     12271.88 
   38900    290.88631    247.50568   -3083.5225   -2650.8512   -29.827998    12266.353 
   38950     287.4427    247.36134   -3078.7114   -2651.1622    161.04727    12260.678 
   39000    297.74689    247.67822    -3089.274   -2646.3981   -85.269013    12254.906 
   39050    293.90163    252.56108   -3085.3694    -2648.213    67.426799    12248.964 
   39100    289.84728    252.37119   -3079.0397   -2647.9139    305.18084    12242.928 
   39150    292.18927    252.52566   -3084.1888   -2649.5794    340.06857    12236.908 
   39200    283.29469    252.11806    -3070.602   -2649.2226    765.83303    12230.961 
   39250    292.57106    252.40099   -3080.0329   -2644.8556    585.26515    12225.245 
   39300    290.52209    252.40225    -3080.075   -2647.9454    631.57027     12219.75 
   39350    307.70127    253.12485   -3104.1617   -2646.4793    87.951399    12214.411 
   39400    283.09412    252.24051   -3074.6838   -2653.6027    936.22151    12209.079 
   39450    294.89556     252.6382   -3087.9402   -2649.3054    672.42036    12204.054 
   39500    309.88486    253.25303   -3108.4345   -2647.5042    205.03784    12199.258 
   39550    293.22417    252.49951   -3083.3171   -2647.1683    854.36695    12194.494 
   39600    290.18353    252.35928   -3078.6427   -2647.0167    1082.5168    12190.016 
   39650    302.39292    252.80036   -3093.3455   -2643.5589    709.05939    12185.978 
   39700    307.04491    252.84926   -3094.9752   -2638.2692    707.39558    12182.204 
   39750    294.64491    252.33608   -3077.8693   -2639.6074    1286.5819     12178.69 
   39800    298.16634    252.51757   -3083.9191   -2640.4193     1146.697    12175.702 
   39850    313.61574    253.07398   -3102.4659   -2635.9862    649.42004    12173.186 
   39900    303.30762     252.6495   -3088.3165   -2637.1694    1117.6334    12170.933 
   39950    298.54375    252.41832   -3080.6105   -2636.5493    1342.6855    12169.124 
   40000     304.9948    252.64955   -3088.3183   -2634.6617    1164.8667    12167.885 
   40050    308.26052    247.69128   -3089.7094   -2631.1952    1145.8223    12167.124 
   40100    293.57521    247.11155   -3070.3849    -2633.714    1674.3009    12166.863 
   40150    312.07034    247.84611   -3094.8704   -2630.6894     1023.959    12167.285 
   40200    305.80241    247.50073   -3083.3575   -2628.4996     1222.845    12168.159 
   40250    303.96465    247.38343   -3079.4475   -2627.3231      1356.85    12169.503 
   40300    301.53794    247.27926   -3075.9753   -2627.4604    1366.4697    12171.446 
   40350    320.71957    247.95976   -3098.6585   -2621.6125    789.65238    12173.916 
   40400    312.55524    247.52049   -3084.0162    -2619.114    1113.9576     12176.71 
   40450    302.21335    247.11436   -3070.4786   -2620.9591    1376.3871    12179.962 
   40500    315.77026    247.62649   -3087.5498   -2617.8654    948.79998    12183.755 
   40550    309.35656    247.30541   -3076.8471   -2616.7027    1193.9584    12187.948 
   40600    309.11165    247.19414   -3073.1381    -2613.358    1250.0094    12192.607 
   40650     317.0091    247.41437    -3080.479    -2608.952    955.38555    12197.774 
   40700    327.41305    247.73528   -3091.1759   -2604.1738     569.0332    12203.305 
   40750     313.8001    247.23873   -3074.6243   -2607.8704    1051.2519    12209.041 
   40800    305.13005    246.85184   -3061.7282   -2607.8703    1456.3137    12215.195 
   40850    310.18474     247.0205     -3067.35   -2605.9737     1263.899    12221.949 
   40900    306.15626    246.87685   -3062.5617   -2607.1775    1326.4927    12229.246 
   40950    306.85489    246.84858   -3061.6194    -2605.196    1228.2357    12237.113 
   41000    311.54947    247.03373   -3067.7909   -2604.3847    981.94436    12245.484 
   41050    306.00193    241.75403   -3058.4677    -2603.313    1047.2511    12254.252 
   41100    320.11524    242.29205   -3076.4016   -2600.2544    397.09896    12263.371 
   41150     314.2445    242.06776   -3068.9253   -2601.5105    507.72632    12272.587 
   41200    307.39228    241.73677   -3057.8924   -2600.6697    685.87464    12281.913 
   41250    303.04178    241.46209   -3048.7364   -2597.9847    707.70805    12291.436 
   41300    312.61792    241.80533   -3060.1777   -2595.1823    310.58879    12301.135 
   41350    309.05767    241.68856   -3056.2854   -2596.5855    399.23097    12310.848 
   41400    306.13652    241.67958   -3055.9859    -2600.631    474.81634     12320.59 
   41450    308.40104    241.72311    -3057.437   -2598.7139    333.04251    12330.393 
   41500    313.20942    241.86628   -3062.2092    -2596.334    72.784077      12340.2 
   41550    310.88484    241.76821   -3058.9402   -2596.5225    16.869025    12349.877 
   41600    319.93999     242.0889   -3069.6301   -2593.7436   -351.91222     12359.34 
   41650    304.40344    241.47992   -3049.3308   -2596.5537    64.094606    12368.483 
   41700    300.79803    241.29064   -3043.0213    -2595.607    138.10567    12377.464 
   41750    306.37255    241.48066   -3049.3554   -2593.6495   -112.18917     12386.33 
   41800    312.00432    241.62886   -3054.2955   -2590.2127   -332.23302    12394.936 
   41850    307.75256     241.3717   -3045.7235   -2587.9649   -217.10838    12403.181 
   41900     304.8762    241.30314    -3043.438   -2589.9578   -208.83913     12411.11 
   41950    306.68056    241.36295   -3045.4315   -2589.2675   -388.38324    12418.731 
   42000    307.92812    241.40225   -3046.7418    -2588.722    -543.1462    12425.954 
   42050    301.25171    246.10124   -3036.7081    -2588.619   -400.88141    12432.713 
   42100    310.56437    246.37749   -3045.9162   -2583.9753   -763.47315    12439.046 
   42150    306.54824    246.20066   -3040.0219   -2584.0546   -720.68351    12444.799 
   42200    313.24342    246.46843   -3048.9477   -2583.0218   -961.58087    12449.945 
   42250    304.58008    246.11497   -3037.1656   -2584.1258   -651.31775    12454.423 
   42300    297.43306    245.88994   -3029.6647   -2587.2556   -372.90709    12458.336 
   42350    306.12404    246.22785   -3040.9283    -2585.592   -695.35343    12461.841 
   42400    305.51519    246.18472   -3039.4908   -2585.0601   -781.19161    12464.797 
   42450    297.07439    245.86365   -3028.7883   -2586.9127   -513.24132    12467.139 
   42500     285.5959    245.44681   -3014.8938   -2590.0916   -123.20074    12469.048 
   42550    291.56897    245.59307   -3019.7691   -2586.0824   -243.21466    12470.698 
   42600    307.94697    246.09688   -3036.5626   -2578.5148    -784.9102    12472.018 
   42650    303.78288    245.91909   -3030.6365   -2578.7825   -716.95453    12472.767 
   42700    301.92631    245.90472   -3030.1572   -2581.0647   -596.00112    12472.921 
   42750    286.68411    245.35706   -3011.9019    -2585.481   -29.758951      12472.6 
   42800    300.62265    245.79747   -3026.5824    -2579.429   -420.63456     12472.04 
   42850    326.35729    246.71933   -3057.3111   -2571.8794    -1285.041    12471.041 
   42900     315.2238    246.24183   -3041.3944   -2572.5229   -948.25423    12469.209 
   42950    304.77663    245.88779   -3029.5931    -2576.261   -495.64839    12466.663 
   43000    303.85939     245.8039   -3026.7966   -2574.8288   -324.28211     12463.65 
   43050     298.5788     245.6388   -3021.2935   -2577.1802   -122.26479    12460.299 
   43100    315.19101    246.15925   -3038.6416   -2569.8189   -576.02576    12456.655 
   43150    302.70567    245.76627   -3025.5423   -2575.2906   -202.03002    12452.575 
   43200    292.34876    245.40817   -3013.6055   -2578.7589    171.78756     12448.22 
   43250    307.60804    245.89352   -3029.7842   -2572.2405    -217.2905    12443.756 
   43300    310.75343    246.01915   -3033.9716   -2571.7494   -268.80198    12439.036 
   43350    318.68117    246.23845   -3041.2815   -2567.2674   -396.11498     12433.98 
   43400     310.6594    245.93939   -3031.3129   -2569.2306    -93.83339    12428.566 
   43450    315.13688    246.08758   -3036.2525   -2567.5103   -183.67671    12422.909 
   43500    316.23561    246.03567   -3034.5225    -2564.146   -58.927071    12416.998 
   43550    310.52572    245.82339   -3027.4463   -2565.5628    272.73491    12410.894 
   43600    315.97088    246.00856   -3033.6188   -2563.6361    131.57866    12404.762 
   43650    328.66698    246.54613   -3051.5378   -2562.6706   -211.69979    12398.522 
   43700    313.40705    246.05611   -3035.2035   -2569.0343    301.55311    12392.043 
   43750    316.95449    246.20229   -3040.0765   -2568.6307    180.67936    12385.523 
   43800    318.51377    246.24731   -3041.5769   -2567.8118    115.52094    12378.957 
   43850     339.3346    247.02425    -3067.475   -2562.7405    -441.3907    12372.248 
   43900    315.71213    246.24429   -3041.4762   -2571.8784    489.79575    12365.215 
   43950    319.00077     246.3941     -3046.47   -2571.9806    590.52833    12358.217 
   44000    310.54796    246.05024   -3035.0079   -2573.0914    964.73687    12351.418 
[...]
   89400    300.13415    228.99454   -3133.1513   -2686.7245    346.18069    12096.268 
   89450    304.14427    229.21172   -3140.3907   -2687.9991    246.95627    12094.666 
   89500    288.16984    228.78355   -3126.1182   -2697.4874    826.31277     12093.02 
   89550    288.52164    228.83692   -3127.8972   -2698.7431    765.71002     12091.57 
   89600    294.71515    229.05655   -3135.2184   -2696.8519    494.95329    12090.328 
   89650    296.31072    229.21331   -3140.4437    -2699.704    368.52167    12089.154 
   89700    302.87799    229.33834   -3144.6114   -2694.1033    182.46946    12087.972 
   89750    302.64741    229.42979   -3147.6598   -2697.4947    179.24389    12086.667 
   89800    288.19564    228.99597   -3133.1989   -2704.5297    548.52654    12085.266 
   89850    289.99819    229.03905    -3134.635   -2703.2847    475.41543    12083.925 
   89900    288.36675    229.02655   -3134.2183   -2705.2946    553.94887    12082.645 
   89950    293.18269    229.13305   -3137.7685   -2701.6814    438.04736    12081.452 
   90000    300.73054    229.42715   -3147.5718   -2700.2579    238.07157    12080.283 
   90050    293.91476    234.15944   -3138.6479    -2701.472    484.62289    12079.064 
   90100    280.17768    233.58215    -3119.405    -2702.662    928.28505    12077.928 
   90150    291.58197    233.96713   -3132.2375   -2698.5314    501.64105    12077.052 
   90200    295.87053    234.12366   -3137.4552   -2697.3702    321.79388    12076.273 
   90250    286.59956    234.02402   -3134.1339   -2707.8387    578.24543    12075.496 
   90300    292.77328    234.27896   -3142.6321    -2707.154    425.25856    12074.808 
   90350    287.48269    234.08586   -3136.1954   -2708.5867    648.21936    12074.183 
   90400    288.79048    234.08084   -3136.0279   -2706.4739    595.29031    12073.718 
   90450    306.17008    234.81297   -3160.4323   -2705.0276    19.465569    12073.338 
   90500    289.04411    234.12492   -3137.4975   -2707.5662    587.08201    12072.848 
   90550    305.89832    234.64854   -3154.9513   -2699.9507    70.162918    12072.403 
   90600    298.03793    234.37793    -3145.931   -2702.6222    253.64451    12071.843 
   90650    299.29417    234.44124   -3148.0414    -2702.864    319.93025    12071.212 
   90700    289.57346    234.09762   -3136.5873   -2705.8687    635.20731    12070.582 
   90750    290.35215     234.2411   -3141.3701   -2709.4933    505.16544    12070.051 
   90800    290.93112    234.22189   -3140.7297   -2707.9917    442.61046    12069.621 
   90850     295.2333    234.34704   -3144.9012    -2705.764    385.24085    12069.229 
   90900    279.88545    233.74309   -3124.7697   -2708.4613    944.55754    12068.892 
   90950    299.99569    234.48121   -3149.3736   -2703.1528    301.85132    12068.808 
   91000    294.11298    234.30872   -3143.6241   -2706.1533    377.90422    12068.729 
   91050     281.1433    228.89808    -3129.936   -2711.7567    813.43879    12068.673 
   91100    295.46931    229.41029   -3147.0097   -2707.5215    465.84684    12068.811 
   91150    294.07836    229.24971    -3141.657   -2704.2377    521.18642    12069.024 
   91200    297.19543    229.35901   -3145.3003   -2703.2447    376.60307    12069.292 
   91250    297.58888    229.38024   -3146.0081   -2703.3672    422.98708    12069.569 
   91300    284.62592    228.95938   -3131.9793   -2708.6198    894.00394    12069.893 
   91350    297.64931    229.31695   -3143.8984   -2701.1676    585.66789    12070.451 
   91400     297.8502    229.23997   -3141.3325   -2698.3029    603.56768    12071.142 
   91450    312.02453     229.6672   -3155.5733   -2691.4605    148.59927    12071.901 
   91500     305.2944    229.35313   -3145.1044   -2691.0021    326.85577    12072.558 
   91550     304.7848    229.36021   -3145.3404   -2691.9961    403.59691    12073.155 
   91600    291.73278    228.82628   -3127.5426   -2693.6122    824.09497    12073.788 
   91650    298.63197    229.02297   -3134.0988   -2689.9064    607.10549    12074.604 
   91700    318.93003    229.64686   -3154.8952   -2680.5109    103.78327    12075.507 
   91750    293.73086    228.73758    -3124.586   -2687.6836    987.41314    12076.338 
   91800     304.0673    229.09437   -3136.4791    -2684.202    693.26222     12077.41 
   91850    306.02899     229.1137   -3137.1234   -2681.9284    609.35872     12078.66 
   91900    286.19748    228.44897   -3114.9656   -2689.2685    1176.1614     12080.06 
   91950    303.42394    229.01588   -3133.8626   -2682.5425    715.44722    12081.821 
   92000    304.59217    229.00946   -3133.6487    -2680.591    726.53031     12083.78 
   92050    317.43967    229.42282   -3147.4274   -2675.2599    416.59871     12085.88 
   92100    309.25554    229.03081   -3134.3605   -2674.3663    712.52791    12088.039 
   92150    317.11594    229.30492   -3143.4972   -2671.8113    458.97247    12090.315 
   92200      297.011    228.48194   -3116.0645   -2674.2832    1148.2622    12092.696 
   92250    292.35788    228.15898   -3105.2995   -2670.4393    1348.7186    12095.458 
   92300     316.9293    228.92381   -3130.7937   -2659.3853    622.67473     12098.69 
   92350    324.73777    229.10459   -3136.8195   -2653.7967    413.05372    12102.072 
   92400    314.81895    228.70832   -3123.6107   -2655.3414    720.05325    12105.477 
   92450    314.89832    228.63856   -3121.2855   -2652.8981    700.13493     12109.04 
   92500    311.73905    228.54933    -3118.311   -2654.6227    803.68182    12112.777 
   92550    309.67535    228.56499   -3118.8331   -2658.2145    831.69426    12116.745 
   92600    322.73894    228.99039    -3133.013   -2652.9633    445.89708    12120.936 
   92650    325.24257    228.94229   -3131.4096    -2647.636    482.10302     12125.17 
   92700    308.14911    228.42672    -3114.224   -2655.8756     899.8276    12129.479 
   92750    312.86602    228.52135   -3117.3782   -2652.0137    684.90028    12134.019 
   92800    309.68277    228.41283   -3113.7611   -2653.1314    694.71519    12138.734 
   92850    315.13236    228.56415   -3118.8051   -2650.0696     514.7471    12143.604 
   92900    296.25984    227.85272   -3095.0906   -2654.4265    1036.6974      12148.6 
   92950    303.75277    228.11177   -3103.7256   -2651.9164     788.4231    12153.888 
   93000    321.22982    228.66706   -3122.2352   -2644.4302    222.86794    12159.373 
   93050    326.71674    228.89657   -3129.8857   -2643.9193    8.9419694    12164.777 
   93100    306.74312    228.13914   -3104.6382    -2648.381    563.54564     12170.02 
   93150    316.40511    228.46962    -3115.654   -2645.0254    223.27242    12175.297 
   93200    295.60472    227.87428   -3095.8092   -2656.1196    662.70047    12180.541 
   93250     307.3139    228.28361   -3109.4537   -2652.3476    224.43823    12185.874 
   93300    306.06059    228.22559   -3107.5196   -2652.2776    192.09293    12191.148 
   93350    298.17654    228.00318   -3100.1059   -2656.5909    372.25378    12196.319 
   93400    297.01707    227.93367   -3097.7889   -2655.9985    308.31943    12201.477 
   93450    312.63273     228.3741   -3112.4698   -2647.4524   -155.45618     12206.56 
   93500    301.79507    228.05219   -3101.7395   -2652.8422    149.92939    12211.396 
   93550    297.98511    228.03263   -3101.0876   -2657.8573    129.73462    12216.093 
   93600    323.92013    228.86581   -3128.8604   -2647.0537   -704.71726    12220.597 
   93650    297.00257    227.93012   -3097.6707   -2655.9019    55.041215    12224.596 
   93700    298.11673    227.91172   -3097.0575   -2653.6314    28.881782     12228.35 
   93750    303.42343      228.268   -3108.9334    -2657.614   -353.11745    12231.902 
   93800    309.31096    228.42826   -3114.2755   -2654.1989   -593.51243     12235.05 
   93850    295.07402    227.92239   -3097.4131   -2658.5129   -203.73495    12237.698 
   93900    303.36875    228.16953    -3105.651    -2654.413    -446.7438     12239.97 
   93950     287.7583     227.6733   -3089.1101   -2661.0914    37.790445     12241.84 
   94000    289.96334    227.83115   -3094.3716   -2663.0731    44.877472    12243.483 
   94050    285.96103    232.64016   -3088.0054   -2662.6601    152.85861    12244.967 
   94100     310.4365    233.47102   -3115.7008     -2653.95    -662.2975    12246.276 
   94150    316.79747     233.7719   -3125.7299   -2654.5177   -867.75401    12247.045 
   94200    289.24486     232.8348   -3094.4935   -2664.2636    28.513764    12247.197 
   94250    291.99121    232.93175    -3097.725   -2663.4102    -102.0085    12247.097 
   94300    296.10606    233.15485   -3105.1617   -2664.7264   -334.12051    12246.742 
   94350    293.12225    233.01348   -3100.4492   -2664.4521   -251.99929    12246.019 
   94400    280.88738    232.60981   -3086.9936   -2669.1949    50.598699     12244.97 
   94450    283.18936    232.73465   -3091.1551   -2669.9324   -13.451098    12243.722 
   94500    291.72994    233.04246   -3101.4155   -2667.4893   -205.91881     12242.27 
   94550    297.16867    233.29011   -3109.6702   -2667.6543   -331.62835    12240.502 
   94600    298.28846    233.31736   -3110.5788   -2666.8973   -200.94152    12238.353 
   94650    292.67616    233.15811   -3105.2703   -2669.9367   -98.384589    12235.891 
   94700    302.26816     233.4952   -3116.5066   -2666.9056   -569.30969    12233.136 
   94750    286.86744    232.93838    -3097.946   -2671.2524   -28.968772     12229.92 
   94800    280.33474    232.69429   -3089.8097    -2672.833    246.87953    12226.471 
   94850    299.55828    233.42071   -3114.0237   -2668.4534    -406.8955    12222.908 
   94900    297.30787    233.32073   -3110.6911   -2668.4682   -270.98359    12218.958 
   94950    293.38202    233.21727   -3107.2424   -2670.8589   -44.652889    12214.665 
   95000    291.82236    233.18344   -3106.1147   -2672.0511    43.817598    12210.142 
   95050    291.78317    228.16601   -3105.5337   -2671.5283    37.531984    12205.425 
   95100    291.16887    228.16001   -3105.3337   -2672.2421    36.529551    12200.503 
   95150    292.48831    228.21848   -3107.2828   -2672.2286   -29.436167    12195.382 
   95200    298.78397    228.41031    -3113.677   -2669.2585   -124.42323    12190.025 
   95250    307.81629    228.74748   -3124.9159   -2667.0625   -251.67801    12184.368 
   95300    295.34543    228.29163    -3109.721    -2670.417    185.21485    12178.384 
   95350    296.87601    228.32621   -3110.8737   -2669.2932    225.66389    12172.255 
   95400    314.06392    228.99017   -3133.0056   -2665.8593   -161.69914     12165.99 
   95450    294.86525    228.37076   -3112.3588   -2673.7691    506.22386    12159.469 
   95500    300.40377    228.64324   -3121.4413   -2674.6135    335.44536    12152.949 
   95550    307.32273    228.93723   -3131.2408   -2674.1216    61.272809    12146.404 
   95600    313.30185    229.17158   -3139.0527     -2673.04   -45.818349    12139.664 
   95650    299.43953    228.67269   -3122.4229   -2677.0293    515.36155    12132.718 
   95700    291.06953     228.4158   -3113.8602   -2680.9163    819.45894    12125.826 
   95750    286.64814    228.32044   -3110.6814    -2684.314     1084.756    12119.146 
   95800    290.77403    228.50187   -3116.7292   -2684.2248    1001.0443    12112.814 
   95850    306.37764    229.11121   -3137.0404   -2681.3269     397.5105    12106.781 
   95900    304.16184    228.91612   -3130.5373   -2678.1196    493.99154    12100.782 
   95950    311.56483    229.20846   -3140.2821    -2676.853    308.00766    12094.805 
   96000     308.8283    229.21856   -3140.6186   -2681.2599    441.53458    12088.794 
   96050    294.12053    233.70025   -3123.3418   -2685.8598    915.43812    12082.838 
   96100    313.03334    234.42142   -3147.3805   -2681.7671    320.58179    12077.097 
   96150    291.23821    233.74408   -3124.8028    -2691.608    984.02808     12071.39 
   96200    295.48591     233.8682   -3128.9398   -2689.4269    987.96536    12065.962 
   96250    295.63505    233.83961    -3127.987   -2688.2523    1057.2599     12060.88 
   96300    304.02757    234.18154   -3139.3847   -2687.1668    813.86175    12056.137 
   96350     300.3986    234.06367   -3135.4556   -2688.6355    898.35218    12051.661 
   96400    293.78579    233.94436   -3131.4785   -2694.4944    1087.1455    12047.469 
   96450    301.95074    234.23742   -3141.2474   -2692.1185    879.50796    12043.635 
   96500    304.07996    234.35822    -3145.274   -2692.9781    851.31525     12040.07 
   96550    298.64759    234.19638   -3139.8793   -2695.6636    987.85385    12036.752 
   96600    295.56027    234.06139   -3135.3798   -2695.7563    1110.5654    12033.748 
   96650    286.80506    233.70325   -3123.4417   -2696.8409    1422.8922    12031.157 
   96700    296.70059    234.17107   -3139.0358   -2697.7161    1094.6505    12029.085 
   96750    298.61914    234.29087   -3143.0292   -2698.8558    1053.1575    12027.409 
   96800    297.34384    234.24803   -3141.6009   -2699.3244    1025.5752    12026.095 
   96850    289.61253    234.00381   -3133.4603   -2702.6836     1232.623    12025.134 
   96900    287.01246    233.93129   -3131.0431   -2704.1338    1306.8606    12024.634 
   96950    294.56154    234.21939   -3140.6464   -2702.5084    1039.1197    12024.617 
   97000    277.41395    233.62627   -3120.8757   -2708.2434     1621.789    12025.005 
   97050    294.81856    229.24618   -3141.5392   -2703.0189     1043.911    12026.007 
   97100    316.97157    230.07503   -3169.1675   -2697.6963    249.83795    12027.348 
   97150    301.07283    229.58171   -3152.7235   -2704.9005    670.22665    12028.679 
   97200    305.95284    229.78346   -3159.4488   -2704.3672    544.96358    12030.119 
   97250    293.78383    229.48994   -3149.6647   -2712.6836    823.59451    12031.666 
   97300    285.78526    229.24251    -3141.417   -2716.3331    966.24188    12033.443 
   97350     301.8949    229.79273   -3159.7577    -2710.712    390.11087    12035.495 
   97400    299.61098    229.66416   -3155.4719   -2709.8232    445.24253    12037.594 
   97450    294.17276    229.40045   -3146.6817    -2709.122     750.5546     12039.72 
   97500    281.87287    229.00402   -3133.4672   -2714.2027    1174.4696     12042.06 
   97550    289.74513    229.38343   -3146.1142   -2715.1403    855.99388    12044.794 
   97600    290.21555    229.36262   -3145.4207   -2713.7471    767.47129     12047.82 
   97650    291.84877    229.43149   -3147.7164   -2713.6135    653.53975    12051.043 
   97700    280.76666    229.15187   -3138.3956   -2720.7765    914.48968    12054.434 
   97750    295.14604    229.74235   -3158.0784   -2719.0711    392.69313    12058.071 
   97800    280.71777    229.11557   -3137.1857   -2719.6393    827.78815      12061.8 
   97850    290.26625    229.45428   -3148.4761   -2716.7271    504.82223    12065.725 
   97900    302.14628    229.84372   -3161.4572   -2712.0375    96.978564    12069.723 
   97950    284.00748     229.2157   -3140.5235   -2718.0839    511.29249    12073.625 
   98000    285.77343    229.33629   -3144.5429   -2719.4766    284.32308    12077.564 
   98050    278.97738    234.09778   -3136.5926   -2721.6349    442.92085      12081.5 
   98100    286.54936    234.47572   -3149.1908   -2722.9704    225.48331    12085.459 
   98150     289.6388    234.50532   -3150.1772   -2719.3614     159.7637    12089.381 
   98200    289.02264    234.37997   -3145.9989   -2716.0996    194.64794    12093.219 
   98250    284.70249     234.2459   -3141.5298   -2718.0565    300.79734    12096.989 
   98300    281.59426    234.17503   -3139.1677   -2720.3176    303.48075    12100.746 
   98350    281.59398    234.11437   -3137.1457    -2718.296    289.84531    12104.493 
   98400    278.66505    233.95232   -3131.7439   -2717.2508     338.7152    12108.232 
   98450    297.94984     234.6065     -3153.55   -2710.3722   -353.83554    12111.934 
   98500    298.00336    234.67792   -3155.9308   -2712.6734   -412.03615    12115.299 
   98550    281.31974    234.04323   -3134.7743   -2716.3325     220.4411    12118.282 
   98600    287.80136    234.28088   -3142.6962   -2714.6134    1.4935312    12121.153 
   98650    284.99105    234.13465   -3137.8216    -2713.919    32.267869    12123.873 
   98700     284.3032    234.04346    -3134.782   -2711.9025    83.965962    12126.429 
   98750    295.08444    234.42945   -3147.6485   -2708.7327   -251.72733    12128.819 
   98800    293.77079    234.33909   -3144.6363   -2707.6745   -146.65996    12130.899 
   98850    288.80182    234.03716   -3134.5719   -2705.0011     117.9004    12132.723 
   98900    282.82879    233.78035   -3126.0117   -2705.3253    348.41853    12134.421 
   98950    279.51868    233.60195    -3120.065   -2704.3022    484.76673    12136.114 
   99000    276.80915    233.44847   -3114.9491   -2703.2165    545.60421    12137.895 
   99050    290.44607    238.75623   -3125.2075    -2693.191     181.2272    12139.775 
   99100    288.79961    238.69871   -3123.2903   -2693.7228    286.35403    12141.607 
   99150    280.59957     238.4054   -3113.5135   -2696.1429    572.12299     12143.42 
   99200    288.58878    238.63913   -3121.3043   -2692.0503    342.93702    12145.348 
   99250    294.55573     238.8497   -3128.3232   -2690.1939    136.31541    12147.296 
   99300    277.26428    238.10163   -3103.3877   -2690.9781    622.85052     12149.18 
   99350    299.98535    238.82585   -3127.5282   -2681.3227    -132.0204    12151.157 
   99400    316.09488    239.31242   -3143.7472   -2673.5801   -596.76346    12152.911 
   99450     294.8418    238.53432   -3117.8107   -2679.2559    234.64621    12154.231 
   99500    287.73116    238.17716   -3105.9055   -2677.9272    603.58225    12155.477 
   99550     311.6885    239.04233   -3134.7442   -2671.1312   -216.56782    12156.788 
   99600    290.84992    238.29929   -3109.9764   -2677.3591    336.63185     12157.88 
   99650    295.46269    238.48093   -3116.0309   -2676.5526    245.38396    12158.933 
   99700    297.08911    238.35294   -3111.7645    -2669.867    325.42937    12159.966 
   99750     295.0692    238.21314   -3107.1047   -2668.2116     498.6949    12160.982 
   99800    292.04353    238.04457   -3101.4855   -2667.0929    644.28346    12162.086 
   99850    287.44499    237.91272   -3097.0906   -2669.5379     763.1781    12163.382 
   99900    293.38165    238.08289   -3102.7631   -2666.3801    609.71533    12164.897 
   99950    309.63878    238.60402   -3120.1342     -2659.57    97.891669    12166.535 
  100000    316.11582    238.76885   -3125.6285   -2655.4301   -86.969018    12168.055 
Loop time of 26.8323 on 1 procs for 100000 steps with 500 atoms

Performance: 322.000 ns/day, 0.075 hours/ns, 3726.857 timesteps/s
99.8% CPU use with 1 MPI tasks x 1 OpenMP threads

MPI task timing breakdown:
Section |  min time  |  avg time  |  max time  |%varavg| %total
---------------------------------------------------------------
Pair    | 21.864     | 21.864     | 21.864     |   0.0 | 81.48
Bond    | 0.007952   | 0.007952   | 0.007952   |   0.0 |  0.03
Neigh   | 0.53093    | 0.53093    | 0.53093    |   0.0 |  1.98
Comm    | 0.76968    | 0.76968    | 0.76968    |   0.0 |  2.87
Output  | 0.01881    | 0.01881    | 0.01881    |   0.0 |  0.07
Modify  | 2.7342     | 2.7342     | 2.7342     |   0.0 | 10.19
Other   |            | 0.9066     |            |       |  3.38

Nlocal:    500 ave 500 max 500 min
Histogram: 1 0 0 0 0 0 0 0 0 0
Nghost:    1606 ave 1606 max 1606 min
Histogram: 1 0 0 0 0 0 0 0 0 0
Neighs:    14520 ave 14520 max 14520 min
Histogram: 1 0 0 0 0 0 0 0 0 0

Total # of neighbors = 14520
Ave neighs/atom = 29.04
Ave special neighs/atom = 0
Neighbor list builds = 638
Dangerous builds = 0

write_data      ${walker}/final_restart_file
write_data      9/final_restart_file

quit
