LAMMPS (19 May 2017)
Processor partition = 9
  using 1 OpenMP thread(s) per MPI task
# gREM variables
variable        lambda world 1000 1005 1010 1015 1020 1025 1030 1035 1040 1045 1050 1055 1060 1065 1070 1075
variable        walker world 0 1 2 3 4 5 6 7 8 9 10 11 12 13 14 15
variable        replica world 1 3 7 2 4 6 5 8 11 14 0 10 12 13 9 15

variable        T0 equal 300.0
variable        press equal 0.0

units           real
atom_style      full
pair_style      lj/cut 5.0

# LJ particles
read_data       ${walker}/restart_file
read_data       9/restart_file
  orthogonal box = (0.866201 0.866201 0.866201) to (24.1338 24.1338 24.1338)
  1 by 1 by 1 MPI processor grid
  reading atoms ...
  500 atoms
  reading velocities ...
  500 velocities
  0 = max # of 1-2 neighbors
  0 = max # of 1-3 neighbors
  0 = max # of 1-4 neighbors
  1 = max # of special neighbors

#dump            dump all xyz 1000 ${walker}/dump.xyz

fix             fxnpt all npt temp ${T0} ${T0} 1000.0 iso ${press} ${press} 10000.0
fix             fxnpt all npt temp 300 ${T0} 1000.0 iso ${press} ${press} 10000.0
fix             fxnpt all npt temp 300 300 1000.0 iso ${press} ${press} 10000.0
fix             fxnpt all npt temp 300 300 1000.0 iso 0 ${press} 10000.0
fix             fxnpt all npt temp 300 300 1000.0 iso 0 0 10000.0
fix             fxgREM all grem ${lambda} -.03 -30000 fxnpt
fix             fxgREM all grem 1045 -.03 -30000 fxnpt
thermo_modify   press fxgREM_press

thermo          50
thermo_style    custom step temp f_fxgREM pe etotal press vol
WARNING: New thermo_style command, previous thermo_modify settings will be lost (../output.cpp:705)
timestep        1.0

temper/grem     100000 1000 ${lambda} fxgREM fxnpt 10294 98392 ${walker}
temper/grem     100000 1000 1045 fxgREM fxnpt 10294 98392 ${walker}
temper/grem     100000 1000 1045 fxgREM fxnpt 10294 98392 9
Neighbor list info ...
  update every 1 steps, delay 10 steps, check yes
  max neighbors/atom: 2000, page size: 100000
  master list distance cutoff = 7
  ghost atom cutoff = 7
  binsize = 3.5, bins = 7 7 7
  1 neighbor lists, perpetual/occasional/extra = 1 0 0
  (1) pair lj/cut, perpetual
      attributes: half, newton on
      pair build: half/bin/newton
      stencil: half/bin/3d/newton
      bin: standard
Per MPI rank memory allocation (min/avg/max) = 5.721 | 5.721 | 5.721 Mbytes
Step Temp f_fxgREM PotEng TotEng Press Volume 
       0    301.10755    234.75038   -2991.6792   -2543.8045   -516.15013    12596.637 
      50    295.15905    234.53116   -2984.3719   -2545.3452   -486.89613    12596.376 
     100    321.83279    235.49992   -3016.6639    -2537.962   -1325.5803    12595.558 
     150    308.13141    235.01675   -3000.5583   -2542.2362   -867.97589    12593.847 
     200    301.59297    234.80994   -2993.6645   -2545.0678   -566.63841    12591.396 
     250    302.44113    234.83414   -2994.4714   -2544.6131    -447.1245    12588.408 
     300    301.27881     234.9069   -2996.8966   -2548.7672   -309.34411    12584.949 
     350    293.17593    234.55562   -2985.1873   -2549.1103   -36.288259    12581.125 
     400    299.97061    234.84201   -2994.7335     -2548.55   -318.40409    12577.041 
     450     307.2229    235.11001    -3003.667   -2546.6963   -597.24981    12572.579 
     500    302.97981    234.90309   -2996.7698   -2546.1103   -402.77714    12567.589 
     550    302.36245    234.90971   -2996.9902    -2547.249   -300.19971    12562.151 
     600    303.02538    234.94224   -2998.0748   -2547.3475   -248.67575    12556.343 
     650    307.85235    235.13354   -3004.4513   -2546.5442   -267.82429    12550.164 
     700    300.15279    234.89906   -2996.6352   -2550.1807   -9.7667612    12543.662 
     750    312.18174    235.40749    -3013.583   -2549.2363   -404.42542    12536.917 
     800    316.80951    235.51536   -3017.1786   -2545.9485    -471.0829     12529.75 
     850    311.21157    235.30802   -3010.2673   -2547.3637   -216.08452    12522.119 
     900    318.69032    235.50986   -3016.9952   -2542.9675   -372.66478    12514.132 
     950    315.30367    235.46338   -3015.4461   -2546.4558   -279.33272    12505.739 
    1000      317.986    235.61691   -3020.5637   -2547.5836   -306.90715     12496.97 
    1050    303.43898    235.20329   -3006.7763   -2555.4338    156.21331    12487.862 
    1100    308.99932    235.53336   -3017.7788   -2558.1657    55.086322      12478.6 
    1150    315.06408    235.78533   -3026.1777   -2557.5437   -92.101019    12469.177 
    1200     316.6027    235.87597    -3029.199   -2558.2765   -161.01904    12459.504 
    1250    309.92199    235.69903   -3023.3011   -2562.3156    83.755539    12449.578 
    1300    310.01017    235.77754   -3025.9179   -2564.8013    163.09823    12439.508 
    1350      308.062     235.8323   -3027.7433   -2569.5245    263.53513    12429.352 
    1400    301.71453    235.58069   -3019.3563   -2570.5788    542.70739     12419.16 
    1450    309.08615    235.85841   -3028.6135   -2568.8713     328.6999    12409.064 
    1500    336.62512     236.8966     -3063.22   -2562.5157   -584.79833    12398.908 
    1550    329.75057    236.73518   -3057.8392   -2567.3602   -375.32761    12388.289 
    1600    295.88738    235.67997   -3022.6658   -2582.5557    696.83848    12377.325 
    1650    311.34795    236.39868   -3046.6227   -2583.5162      337.998    12366.465 
    1700    299.74796    236.04026   -3034.6752   -2588.8229    792.87734    12355.676 
    1750    298.68944    236.12873   -3037.6242   -2593.3463    770.47217    12345.143 
    1800     322.0484    237.07917   -3069.3056    -2590.283    50.052719    12334.826 
    1850    309.20342    236.67076    -3055.692   -2595.7754    533.29807     12324.42 
    1900    288.35277    235.91471   -3030.4902   -2601.5873    1245.3818    12314.157 
    1950    297.93053    236.30997   -3043.6657   -2600.5167    1004.1442    12304.355 
    2000    301.02738    236.52119   -3050.7064    -2602.951    943.99562    12294.955 
    2050    302.49458    231.68463   -3056.1542   -2606.2164    878.25393    12285.903 
    2100    312.23126    232.09547   -3069.8488   -2605.4285    502.82675    12277.143 
    2150    324.92484     232.6112   -3087.0401   -2603.7391    113.05456    12268.461 
    2200    306.38675    231.84093   -3061.3645   -2605.6374    806.78326     12259.72 
    2250    319.39096    232.36956   -3078.9852   -2603.9153    540.13299    12251.186 
    2300    308.40359    231.98456    -3066.152    -2607.425    986.97309    12242.802 
    2350    316.98293    232.40519   -3080.1731    -2608.685    733.61772    12234.727 
    2400    343.24094    233.29591   -3109.8636   -2599.3188    13.523519    12226.844 
    2450    318.50497    232.45874    -3081.958    -2608.206    859.75776    12218.864 
    2500    310.96324    232.25019   -3075.0062    -2612.472    1137.9039    12211.132 
    2550    326.36894    232.78858   -3092.9528   -2607.5037    758.11497    12203.796 
    2600    319.53151    232.65954   -3088.6514   -2613.3725    1101.7956    12196.726 
    2650    309.87524    232.29355   -3076.4515   -2615.5356    1525.3701    12190.063 
    2700    311.95978    232.45134   -3081.7113   -2617.6948    1367.2806    12184.001 
    2750     313.0149    232.45142   -3081.7141   -2616.1281    1255.2794    12178.507 
    2800    321.98809    232.88253   -3096.0844   -2617.1515    964.04845    12173.478 
    2850    306.93495    232.43119   -3081.0396   -2624.4972    1389.5039    12168.818 
    2900    315.96951    232.74613   -3091.5376   -2621.5569    1122.1662    12164.669 
    2950    306.55634     232.4867   -3082.8898   -2626.9105    1338.6208    12160.967 
    3000    312.98781    232.74398   -3091.4661   -2625.9205    1169.5677    12157.756 
    3050    331.61117    233.38724   -3112.9079   -2619.6614    561.12976     12154.96 
    3100    334.80091    233.48741    -3116.247    -2618.256    396.64901    12152.281 
    3150    327.49112    233.32088    -3110.696   -2623.5778    595.37123    12149.616 
    3200     326.7073    233.41964    -3113.988   -2628.0357    641.64537     12147.05 
    3250    307.24773    232.90193   -3096.7311   -2639.7234    1238.3419    12144.648 
    3300     302.7463    232.76244   -3092.0814   -2641.7692    1384.6172    12142.674 
    3350    301.98514     232.6662   -3088.8732   -2639.6932    1304.4927    12141.258 
    3400    320.83675    233.44048   -3114.6828   -2637.4624    568.63181    12140.309 
    3450    316.30481    233.40216   -3113.4053   -2642.9259    665.88547    12139.502 
    3500    302.91091    232.92082   -3097.3608   -2646.8037    1096.0979     12138.86 
    3550    298.19448     232.8085   -3093.6166   -2650.0749     1169.086    12138.578 
    3600    308.18767    233.16059   -3105.3531   -2646.9473    786.37796    12138.695 
    3650    313.53904    233.30106   -3110.0354   -2643.6698    594.00799    12139.039 
    3700    304.57806    233.09041   -3103.0136   -2649.9768    812.41282    12139.518 
    3750     304.9495    233.20952   -3106.9839   -2653.3946     781.7343     12140.22 
    3800    306.70646    233.35623   -3111.8743   -2655.6717    696.89648    12141.137 
    3850    304.86073    233.25439   -3108.4798   -2655.0226    768.31949    12142.234 
    3900    295.72361    233.03651    -3101.217   -2661.3505     1020.956    12143.548 
    3950    306.74777    233.48009   -3116.0031    -2659.739    640.38388    12145.173 
    4000    307.22367    233.41222   -3113.7406   -2656.7687    632.22776    12146.965 
    4050    300.85438    233.19233    -3106.411   -2658.9129    744.74593    12148.895 
    4100    308.69105      233.481   -3116.0335   -2656.8789     413.9615     12150.99 
    4150    294.50025    233.14201   -3104.7335   -2666.6867    709.27406    12153.143 
    4200    299.53709    233.33791   -3111.2637    -2665.725     472.6155    12155.448 
    4250    301.48227    233.39003   -3113.0009   -2664.5688    414.57486     12157.82 
    4300    305.90953      233.619   -3120.6332    -2665.616    223.68328    12160.185 
    4350    302.07979    233.55298   -3118.4326   -2669.1118    176.97566    12162.464 
    4400     298.6587    233.44499   -3114.8329   -2670.6008    203.94299    12164.646 
    4450    284.26818      233.061   -3102.0334    -2679.206    579.66721    12166.765 
    4500    303.22812    233.65827   -3121.9422   -2670.9134    91.227322    12168.944 
    4550    305.04453    233.68442   -3122.8141   -2669.0835     91.74111    12171.016 
    4600    294.87905    233.34199   -3111.3997   -2672.7895    441.57519    12172.945 
    4650    283.37876     233.0776   -3102.5867   -2681.0822    664.37411    12174.903 
    4700    296.41458    233.53977   -3117.9922    -2677.098     208.2721    12176.986 
    4750     284.5117    233.08713   -3102.9042   -2679.7146    538.47005    12179.052 
    4800    287.92414    233.11218   -3103.7394    -2675.474    362.46401    12181.181 
    4850    304.68206    233.74895   -3124.9651   -2671.7737   -303.59445    12183.271 
    4900    297.26121    233.55807   -3118.6022   -2676.4487   -216.61675    12185.038 
    4950    286.02712    233.17895    -3105.965   -2680.5213    154.18801    12186.481 
    5000    281.28518    233.01896   -3100.6319   -2682.2415    347.15252    12187.804 
    5050    296.16325    238.55222   -3118.4074    -2677.887   -150.28583    12189.097 
    5100    290.17223    238.43915   -3114.6384   -2683.0292   -73.815076     12190.16 
    5150    290.18184    238.39569   -3113.1897   -2681.5662   0.14525547    12190.983 
    5200    279.84904    238.03528    -3101.176   -2684.9218    301.39459    12191.637 
    5250     286.2011    238.26688   -3108.8961   -2683.1936    111.34639    12192.254 
    5300     293.7725    238.55502   -3118.5006   -2681.5363   -140.51164    12192.756 
    5350     298.5153    238.76615   -3125.5383   -2681.5194   -284.44014    12192.979 
    5400    280.24459     238.0023   -3100.0768   -2683.2342    250.68121    12192.921 
    5450    279.06303    237.92824   -3097.6079   -2682.5228    230.61504    12192.804 
    5500    287.86722    238.18864   -3106.2881   -2678.1074  -0.25028438    12192.617 
    5550    287.23055    238.12804    -3104.268   -2677.0344      77.3766    12192.268 
    5600    287.35053    238.18242   -3106.0806   -2678.6685    61.173022    12191.784 
    5650    300.72846    238.77974   -3125.9915   -2678.6807   -425.04762    12191.119 
    5700    298.72989    238.63353   -3121.1178   -2676.7797   -326.06054    12190.071 
    5750    296.51929    238.51541   -3117.1805   -2676.1305   -160.79988    12188.649 
    5800    288.68616    238.29943   -3109.9809   -2680.5821    186.93121    12186.971 
    5850    269.50557    237.69214   -3089.7379   -2688.8688     776.1789    12185.257 
    5900     291.7642    238.36143   -3112.0477   -2678.0706    131.05502    12183.726 
    5950    295.96784     238.4787   -3115.9567   -2675.7269     22.42428    12182.118 
    6000    299.51775    238.51226   -3117.0755   -2671.5655   -98.004544    12180.329 
    6050    298.27117    238.45746   -3115.2487    -2671.593   -69.650227     12178.31 
    6100    294.31718    238.28617    -3109.539   -2671.7645    166.23794    12176.077 
    6150    303.85908    238.60391   -3120.1303    -2668.163   -25.213953    12173.727 
    6200     300.4953    238.47076   -3115.6919   -2668.7279    212.90688    12171.217 
    6250    285.38071    237.86247   -3095.4156   -2670.9334     843.0472    12168.666 
    6300    284.33679    237.79397   -3093.1324    -2670.203    944.84057    12166.368 
    6350    293.16605    238.10669   -3103.5564   -2667.4941    717.66429    12164.393 
    6400    296.78733    238.16181   -3105.3937    -2663.945    632.09196    12162.644 
    6450    294.83217    238.12839   -3104.2798   -2665.7393    722.43679    12161.065 
    6500    297.92991    238.11546   -3103.8488   -2660.7006    696.62136    12159.678 
    6550    310.84524    238.51645    -3117.215   -2654.8563    321.47488    12158.448 
    6600    300.90334    238.17161   -3105.7205   -2658.1496    568.47161     12157.26 
    6650    318.91003      238.751   -3125.0333   -2650.6788    32.476016    12156.128 
    6700    300.42114    238.07879   -3102.6263   -2655.7726    698.89837    12154.898 
    6750    302.38195    238.11821   -3103.9403     -2654.17    721.98492    12153.813 
    6800    305.68748    238.19787   -3106.5955   -2651.9086    644.26246    12152.934 
    6850    305.36394    238.17385   -3105.7949   -2651.5892    655.86891    12152.233 
    6900    322.08195    238.72768   -3124.2559   -2645.1835    251.28514    12151.661 
    6950    315.64313    238.42837   -3114.2792   -2644.7839    574.14271    12151.074 
    7000    308.31621    238.10608   -3103.5359   -2644.9389    849.40917      12150.6 
    7050     308.4101    233.10895   -3103.6318   -2644.8951    825.26328    12150.363 
    7100    301.74282    232.93113   -3097.7042   -2648.8846    1030.9347    12150.391 
    7150    306.18821    233.02494   -3100.8315   -2645.3997    934.65705    12150.757 
    7200    311.52127    233.24559   -3108.1863   -2644.8221    807.51692     12151.42 
    7250    297.26936    232.67149   -3089.0498   -2646.8842    1313.8801    12152.364 
    7300     320.1352    233.49123   -3116.3745   -2640.1976    586.74306     12153.74 
    7350    323.94685    233.55041   -3118.3469   -2636.5005    545.69084    12155.253 
    7400     292.6047    232.49474    -3083.158   -2647.9307    1632.0661    12156.914 
    7450    302.33543    232.82715   -3094.2382   -2644.5372    1272.4394    12159.182 
    7500    314.20602    233.18651   -3106.2172   -2638.8595    797.66481    12161.935 
    7550    304.15308    232.76465   -3092.1551   -2639.7505    1126.9761    12164.951 
    7600    299.52659    232.65114   -3088.3712   -2642.8481    1101.2477    12168.349 
    7650    318.58441     233.3461   -3111.5367   -2637.6666    412.05947    12172.081 
    7700    302.14835    232.77776   -3092.5919   -2643.1691    871.88883    12175.908 
    7750    322.44001    233.44842   -3114.9474   -2635.3423    188.83278    12179.927 
    7800    310.37996     233.0314   -3101.0466   -2639.3799    434.24095    12183.885 
    7850    318.31759    233.31083    -3110.361   -2636.8877    163.02097    12187.832 
    7900    308.99455    232.92301   -3097.4338   -2637.8278    427.70476    12191.705 
    7950    311.47748    233.04561   -3101.5202   -2638.2211    317.64912    12195.552 
    8000    304.48397     232.8021   -3093.4035   -2640.5066    510.87278    12199.382 
    8050    298.71738    237.56685   -3085.5618   -2641.2423    654.12586    12203.289 
    8100    297.53577    237.55276   -3085.0921   -2642.5302    634.90129    12207.352 
    8150    295.92869    237.50373   -3083.4576   -2643.2861    641.49219    12211.571 
    8200    298.41436    237.60254   -3086.7514   -2642.8827    501.45862    12215.951 
    8250    282.81287    236.99909   -3066.6364   -2645.9737     925.7751    12220.468 
    8300    301.03377    237.67054    -3089.018   -2641.2531     306.1578    12225.245 
    8350    296.39001    237.47848    -3082.616   -2641.7583    362.81904    12230.042 
    8400    296.67236    237.56319   -3085.4398   -2644.1622    267.63084    12234.825 
    8450    303.46145    237.82978   -3094.3259     -2642.95   -0.1937827    12239.563 
    8500    303.77631    237.77745   -3092.5815   -2640.7373   -42.180721    12244.107 
    8550    297.31538    237.51836   -3083.9454   -2641.7113    184.66565    12248.448 
    8600    297.94699    237.44698   -3081.5658   -2638.3923    178.35737    12252.697 
    8650    299.92215    237.56924   -3085.6415     -2639.53   -7.5795286    12256.842 
    8700    297.27143    237.61124   -3087.0412   -2644.8725   -71.315346    12260.796 
    8750    303.09541     237.7756   -3092.5199   -2641.6884   -271.29935    12264.515 
    8800    299.80473    237.72966   -3090.9886   -2645.0518   -234.99996    12267.903 
    8850    297.51546    237.61797   -3087.2658   -2644.7341   -174.79522    12270.971 
    8900    305.23648    237.82617   -3094.2057   -2640.1896   -390.99203    12273.732 
    8950    298.42607    237.63361    -3087.787   -2643.9008   -187.77968    12276.114 
    9000    302.53259    237.82567    -3094.189   -2644.1947   -251.82252    12278.177 
    9050    280.41325    242.17998    -3072.666   -2655.5725    419.76754    12279.963 
    9100    270.86653    241.84085   -3061.3617   -2658.4682    614.66843    12281.804 
    9150    301.67304    242.91604   -3097.2012   -2648.4854   -485.58049    12283.738 
    9200    297.33088    242.77029   -3092.3429   -2650.0858   -427.76063    12285.299 
    9250    290.75085    242.50705   -3083.5685   -2651.0986   -171.03868     12286.46 
    9300    287.72122    242.46435   -3082.1449   -2654.1814     -52.6583    12287.349 
    9350    286.93402     242.5514   -3085.0467   -2658.2541   -20.272597    12288.028 
    9400    275.14067    242.15865    -3071.955   -2662.7042    290.55287    12288.548 
    9450    287.42563    242.52272   -3084.0906   -2656.5667   -186.27412    12289.018 
    9500    296.96343     242.8417   -3094.7233   -2653.0127   -535.70481    12289.214 
    9550    290.33327    242.57889   -3085.9631   -2654.1144   -287.45255    12288.961 
    9600    296.83444    242.87814   -3095.9381   -2654.4194   -560.09068     12288.34 
    9650    301.45781    243.16357   -3105.4523   -2657.0567   -814.81277    12287.254 
    9700    288.25554    242.70813   -3090.2712   -2661.5129   -381.40965    12285.596 
    9750    291.43932    242.92712   -3097.5708   -2664.0769   -452.30325    12283.509 
    9800    287.72166     242.8848   -3096.1599   -2668.1957   -411.40029    12281.026 
    9850    290.31426    242.93219   -3097.7398   -2665.9193    -613.4297    12278.135 
    9900    297.70069    243.23693   -3107.8978   -2665.0906   -930.85248    12274.725 
    9950    277.21572    242.51385   -3083.7951   -2671.4577   -270.45688      12270.7 
   10000    272.47868    242.30699   -3076.8995   -2671.6081   -69.604324    12266.336 
   10050    294.90908    243.20142    -3106.714   -2668.0591   -736.26335    12261.731 
   10100    301.82017    243.53072   -3117.6906    -2668.756   -948.80374    12256.585 
   10150    294.06685    243.32151   -3110.7169   -2673.3147   -629.90627    12250.781 
   10200    273.73196    242.58795    -3086.265   -2679.1095    112.04482      12244.5 
   10250    283.75341    242.98497   -3099.4991   -2677.4374   -113.86705    12238.066 
   10300    300.18691    243.54419   -3118.1397   -2671.6345   -519.43679    12231.414 
   10350     288.3794    243.15648   -3105.2159   -2676.2734   -181.67318    12224.359 
   10400    282.38516    243.00769   -3100.2564   -2680.2299    64.496761    12217.029 
   10450    280.98531    242.97366    -3099.122   -2681.1776    144.92717    12209.584 
   10500    296.21418    243.50025   -3116.6749   -2676.0788   -338.82087    12202.043 
   10550    294.77689    243.37738   -3112.5794   -2674.1211   -194.15373    12194.194 
   10600    282.27213    243.13141   -3104.3804   -2684.5221    228.37412    12186.091 
   10650     287.5822    243.33714   -3111.2379   -2683.4811    122.63535    12177.938 
   10700    290.54809    243.45675    -3115.225   -2683.0567    36.902895    12169.717 
   10750     288.3041     243.3546   -3111.8199   -2682.9894    195.30957    12161.376 
   10800    285.99082    243.23892   -3107.9639   -2682.5742    393.40371    12153.001 
   10850    294.60291    243.54841   -3118.2803   -2680.0808    192.09043    12144.677 
   10900    294.07478    243.68059   -3122.6864   -2685.2725    230.50726    12136.306 
   10950    281.36355    243.24636    -3108.212   -2689.7051    743.66822     12127.95 
   11000    295.44263    243.75616   -3125.2054   -2685.7569    466.64643    12119.799 
   11050    297.82783    238.79224   -3126.4079   -2683.4116    530.64968    12111.767 
   11100    292.04665    238.60465   -3120.1549   -2685.7577    805.98619    12103.864 
   11150    301.86566    238.96912   -3132.3039   -2683.3016    568.72628    12096.201 
   11200    304.74122    239.07234   -3135.7447   -2682.4652    559.33224    12088.687 
   11250    301.29316    238.85201   -3128.4003   -2680.2495    830.39534    12081.304 
   11300    290.83941    238.47292   -3115.7642   -2683.1626    1272.9506    12074.222 
   11350    291.27206     238.5608   -3118.6932   -2685.4481    1344.0286    12067.639 
   11400    291.26539    238.49347   -3116.4492    -2683.214    1378.1206    12061.613 
   11450    294.63733    238.59581   -3119.8604   -2681.6097    1270.9406    12056.146 
   11500    305.77778    239.06047   -3135.3492   -2680.5279    925.82578    12051.174 
   11550    308.21469    239.08648   -3136.2159     -2677.77    971.36973    12046.539 
   11600    305.16082    238.94554   -3131.5181   -2677.6145    1169.5597    12042.254 
   11650    314.75032    239.36206   -3145.4019   -2677.2346    865.99752     12038.38 
   11700    300.46314    238.84804   -3128.2681   -2681.3519     1304.408    12034.849 
   11750    307.72843    239.01004   -3133.6682   -2675.9454    1168.7011    12031.796 
   11800    304.33232    238.88479   -3129.4929   -2676.8217    1369.6277    12029.199 
   11850     299.4571    238.70773   -3123.5909   -2678.1711    1606.5213    12027.152 
   11900    305.91962    238.89018   -3129.6728   -2674.6405     1415.442    12025.757 
   11950    307.71515    239.01815   -3133.9385   -2676.2355    1337.3934    12024.932 
   12000    299.81628    238.72786    -3124.262    -2678.308    1564.3473    12024.649 
   12050    294.18614    238.55813   -3118.6042   -2681.0246    1687.6358    12025.009 
   12100    297.42312    238.60382   -3120.1275   -2677.7332    1612.2506    12026.068 
   12150    305.04461    238.91141   -3130.3802   -2676.6494     1347.385    12027.785 
   12200    311.15043    239.10648   -3136.8827     -2674.07    1142.0424    12030.028 
   12250    297.37982     238.6443   -3121.4766   -2679.1467    1534.6504    12032.733 
   12300     317.5764    239.27897   -3142.6325   -2670.2617    1031.0127    12036.014 
   12350    308.85531    238.95043    -3131.681   -2672.2821    1245.8325    12039.703 
   12400    305.04255      238.882      -3129.4   -2675.6723    1266.5821    12043.847 
   12450     305.5144    238.82853   -3127.6175    -2673.188     1275.701    12048.482 
   12500    294.08144     238.4207   -3114.0233   -2676.5995    1559.2977    12053.625 
   12550    303.66862    238.67588   -3122.5293   -2670.8452    1172.8421    12059.362 
   12600    311.95048    239.05024   -3135.0079   -2671.0052    811.33289     12065.54 
   12650    303.06135    238.71365   -3123.7882   -2673.0074    1145.4789    12071.986 
   12700    301.76168    238.68452   -3122.8172   -2673.9695    1109.0661    12078.838 
   12750    316.59373    239.23159   -3141.0531    -2670.144     453.3807    12086.056 
   12800     294.0819    238.50133   -3116.7111   -2679.2866    951.16913    12093.381 
   12850    292.40759    238.41744   -3113.9148   -2678.9807    892.03649    12100.976 
   12900    300.30904    238.66011   -3122.0037   -2675.3168    614.37029    12108.856 
   12950    296.91591    238.50512   -3116.8373   -2675.1974    699.45068     12116.89 
   13000    292.38585    238.35823    -3111.941   -2677.0393    798.65085    12125.101 
   13050    294.36559    238.47195   -3115.7318   -2677.8853    621.84257    12133.548 
   13100    287.06895    238.18493   -3106.1643    -2679.171    827.73626    12142.172 
   13150    279.61556    237.87518   -3095.8394   -2679.9324    958.95721    12151.063 
   13200    295.81989    238.52185   -3117.3949   -2677.3852     247.5068    12160.234 
   13250    299.73295    238.57091   -3119.0303   -2673.2002   -28.827058    12169.369 
   13300     301.9051    238.59326   -3119.7753   -2670.7144   -102.05345    12178.278 
   13350    294.50105    238.37849   -3112.6162   -2674.5682    83.174761    12186.964 
   13400    301.44632    238.47401   -3115.8004   -2667.4219   -167.52743     12195.46 
   13450    279.57452    237.74996   -3091.6653   -2675.8194     376.3131    12203.701 
   13500    290.27346     238.1179   -3103.9301   -2672.1704   -8.7659205    12211.887 
   13550    308.05302    238.68496   -3122.8321   -2664.6266    -680.7809    12219.861 
   13600    304.43962    238.53913    -3117.971   -2665.1401   -624.77569      12227.3 
   13650    282.76037    237.79878   -3093.2925   -2672.7079    19.057857    12234.221 
   13700    278.42661    237.68791    -3089.597   -2675.4585    28.220901    12240.921 
   13750    298.79463     238.3505   -3111.6834   -2667.2491   -696.59133    12247.401 
   13800    303.43186    238.45621   -3115.2072   -2663.8753   -864.22237     12253.33 
   13850    293.91802    238.04072   -3101.3574   -2664.1766   -513.23707    12258.596 
   13900     288.6993    237.85643   -3095.2143   -2665.7959    -372.4664    12263.366 
   13950    289.15099    238.03942    -3101.314   -2671.2239   -490.99288    12267.727 
   14000    284.83939    237.75885   -3091.9617   -2668.2847   -312.85364    12271.647 
   14050    279.01533     242.4528   -3081.7599   -2666.7457   -103.79104     12275.21 
   14100    287.87766    242.71567   -3090.5223   -2662.3261   -335.09999    12278.512 
   14150    282.75024    242.44144   -3081.3814   -2660.8118   -170.23641    12281.488 
   14200    286.17338    242.44861   -3081.6205   -2655.9593   -270.08358    12284.162 
   14250    295.09278    242.70919   -3090.3064   -2651.3783   -484.07796     12286.49 
   14300    283.57491    242.27798   -3075.9327   -2654.1365   -88.368593    12288.404 
   14350    280.27886    242.04867   -3068.2891   -2651.3955    65.437106    12290.078 
   14400    296.74197    242.53888   -3084.6294   -2643.2482   -440.34807    12291.576 
   14450    301.73065    242.71988   -3090.6627   -2641.8612   -609.80363    12292.674 
   14500    284.68454     242.2272   -3074.2399   -2650.7932   -72.193798    12293.298 
   14550    290.93113    242.29191    -3076.397    -2643.659   -169.03935    12293.676 
   14600    294.84787    242.34638   -3078.2126   -2639.6488   -218.82206    12293.794 
   14650    279.45563    241.74851   -3058.2836   -2642.6145    348.78236    12293.659 
   14700    300.89145    242.48839   -3082.9465   -2635.3932   -225.92118    12293.468 
   14750    296.62611    242.24825   -3074.9415   -2633.7327    4.9566715    12293.037 
   14800    293.70591     242.1237   -3070.7899   -2633.9246    133.83347    12292.427 
   14850    305.12141    242.51008   -3083.6692   -2629.8242   -175.40944    12291.697 
   14900    298.31229    242.20312   -3073.4374   -2629.7205    162.68108    12290.726 
   14950     294.3156    242.01047   -3067.0157   -2629.2435    370.64936    12289.674 
   15000    311.08177    242.53888   -3084.6294   -2621.9188   -47.956789    12288.624 
   15050    303.70595    247.16764   -3072.2547   -2620.5151    240.72707    12287.423 
   15100    304.18083    247.13618   -3071.2058   -2618.7599     200.7977    12286.183 
   15150    304.88443    247.15159   -3071.7198   -2618.2273    158.82879    12284.875 
   15200    296.91626    246.91472   -3063.8239   -2622.1834    487.34006    12283.512 
   15250     295.1953    246.86129   -3062.0429   -2622.9622    639.38666    12282.262 
   15300     302.2967    246.95121   -3065.0403   -2615.3968    579.67085    12281.197 
   15350    309.53288    247.22905   -3074.3017    -2613.895    407.10305    12280.264 
   15400    302.95259    247.06477   -3068.8255   -2618.2065     548.5018    12279.411 
   15450    292.31335    246.68634   -3056.2115   -2621.4175    923.26792    12278.723 
   15500    299.29354    246.87243   -3062.4143   -2617.2378    711.24816    12278.343 
   15550    312.64445    247.30482   -3076.8272   -2611.7923    280.98258    12278.174 
   15600    289.99217    246.55092   -3051.6974    -2620.356    963.32758    12278.066 
   15650    312.70692    247.36101   -3078.7005   -2613.5727    264.75739    12278.243 
   15700    306.37349    247.10085   -3070.0283    -2614.321    454.90122    12278.473 
   15750    298.02517    246.78113   -3059.3709    -2616.081    769.89506    12278.788 
   15800    311.28601    247.31103   -3077.0344     -2614.02    287.99212    12279.306 
   15850    312.47555    247.31603    -3077.201   -2612.4173    184.72859    12279.844 
   15900    308.79542    247.14463   -3071.4878    -2612.178    368.50714    12280.339 
   15950    297.07779    246.65617   -3055.2057    -2613.325    799.67537    12280.892 
   16000    307.56723    247.00704   -3066.9014   -2609.4185    417.67718    12281.668 
   16050    307.46407    252.09621   -3069.8736   -2612.5441    374.85941    12282.531 
   16100     296.8469    251.72585   -3057.5283    -2615.991    741.60077    12283.475 
   16150    305.97305    252.05997   -3068.6658   -2613.5541     486.2716    12284.626 
   16200    297.27432     251.7147   -3057.1566   -2614.9835    761.11644    12285.949 
   16250     308.5531    252.12198   -3070.7327   -2611.7834    445.40995    12287.496 
   16300    303.37866    251.88262   -3062.7539   -2611.5012    683.65368    12289.142 
   16350    281.06279    251.03901   -3034.6338   -2616.5742    1423.8415    12291.041 
   16400    301.05034    251.78273   -3059.4243   -2611.6348    548.67915    12293.499 
   16450     313.8524    252.30879   -3076.9596   -2610.1279   -59.326647     12296.12 
   16500     293.2291    251.63953   -3054.6508   -2618.4948    599.40562     12298.62 
   16550    296.25726    251.69064   -3056.3547   -2615.6944    555.38336    12301.266 
   16600    299.63028    251.72968   -3057.6561   -2611.9787    429.16176    12304.089 
   16650    305.82476     251.8384   -3061.2801    -2606.389    332.11323    12306.978 
   16700    290.16269    251.25658   -3041.8861   -2610.2911      850.791    12309.922 
   16750    303.34682    251.74896   -3058.2985   -2607.0931    365.30507     12313.12 
   16800    308.75328    252.04858    -3068.286   -2609.0389     126.8111    12316.372 
   16850    302.43362    251.73281   -3057.7604   -2607.9133    401.33483    12319.571 
   16900    306.63879    251.83144   -3061.0478   -2604.9459    234.91987    12322.814 
   16950    306.18644    251.78429   -3059.4765   -2604.0473    146.28748    12326.021 
   17000    290.65552    251.20572   -3040.1905   -2607.8625     589.2222    12329.176 
   17050    296.52692    246.45394   -3048.4646   -2607.4033    328.16541    12332.462 
   17100    315.53787    247.10008   -3070.0027    -2600.664   -332.14956    12335.733 
   17150    311.20539    246.96226   -3065.4086   -2602.5141   -238.64105    12338.672 
   17200    306.58736     246.8719   -3062.3965    -2606.371   -70.176162    12341.302 
   17250    301.74138    246.70379    -3056.793   -2607.9755    144.11156    12343.715 
   17300    297.06346    246.47939    -3049.313   -2607.4536    303.03398    12346.038 
   17350    297.39578    246.56465   -3052.1551   -2609.8014    304.42759     12348.35 
   17400    289.41223    246.22657   -3040.8857    -2610.407    580.35274    12350.681 
   17450    289.80172    246.20936   -3040.3119   -2609.2538    522.36103    12353.153 
   17500      293.308    246.33181   -3044.3938   -2608.1203    308.54853    12355.743 
   17550    305.01268    246.73375   -3057.7918   -2604.1085   -157.47728    12358.309 
   17600     305.0414    246.79045   -3059.6817   -2605.9557   -253.64247    12360.632 
   17650    304.04776    246.79091    -3059.697    -2607.449   -199.76515    12362.642 
   17700    291.96096    246.36526   -3045.5088    -2611.239    235.29685    12364.404 
   17750    300.40304    246.64807   -3054.9356   -2608.1089    12.944499    12366.093 
   17800    303.79964    246.78481   -3059.4936   -2607.6147   -148.80477    12367.624 
   17850    305.53923    246.77057    -3059.019   -2604.5526   -196.53911    12368.904 
   17900    307.08961    246.71841   -3057.2804   -2600.5079   -211.15463    12369.913 
   17950    297.66219    246.36352   -3045.4505   -2602.7006    41.255833    12370.642 
   18000    302.19486    246.68234    -3056.078    -2606.586   -167.29394    12371.185 
   18050    290.60277    241.30792   -3043.5974   -2611.3478    178.95353    12371.509 
   18100    288.43769    241.26286   -3042.0953   -2613.0661    263.11032    12371.741 
   18150    301.02317    241.64652    -3054.884   -2607.1348     -37.5762     12371.93 
   18200    295.18366    241.33609   -3044.5365   -2605.4731    201.87273    12371.953 
   18250    308.91625    241.79915   -3059.9718   -2600.4823   -217.50513    12371.862 
   18300    303.26182    241.66458   -3055.4859   -2604.4069   -75.147567     12371.51 
   18350    297.38627    241.43186   -3047.7287   -2605.3891    106.41427    12370.944 
   18400    299.63397    241.53337   -3051.1122   -2605.4294   -43.447984     12370.26 
   18450    312.62515    241.91829   -3063.9431   -2598.9369   -413.04227    12369.354 
   18500    302.19027    241.57292   -3052.4307   -2602.9456   -62.284813    12368.077 
   18550    300.55311    241.52811    -3050.937    -2603.887   -12.057517    12366.584 
   18600    292.61962    241.24474   -3041.4915    -2606.242    241.47798    12364.943 
   18650    296.14305    241.44249   -3048.0829   -2607.5925     147.7699    12363.246 
   18700     303.2308    241.67242   -3055.7475   -2604.7146    -70.24754    12361.454 
   18750    310.99052    241.98217   -3066.0722   -2603.4974   -300.56182    12359.448 
   18800    301.68206    241.54913   -3051.6378   -2602.9086    82.774513    12357.138 
   18850    291.39537    241.19951   -3039.9838   -2606.5552    396.78758    12354.697 
   18900    308.34095     241.8543   -3061.8099   -2603.1761   -140.69437    12352.265 
   18950    295.73931    241.36863   -3045.6211   -2605.7313    288.04583     12349.67 
   19000    311.56612    241.87637   -3062.5458   -2599.1148   -58.016626    12347.016 
   19050     310.9488    241.80641   -3060.2135   -2597.7008    14.305615    12344.192 
   19100    311.59959    241.87413    -3062.471   -2598.9902   -18.029412    12341.205 
   19150    312.38919    241.89767   -3063.2557   -2598.6004    6.9736219     12338.04 
   19200    297.94515    241.26869   -3042.2897   -2599.1189     551.8421    12334.748 
   19250    304.92485    241.51182    -3050.394   -2596.8414    364.28264    12331.556 
   19300    294.31101    241.15077   -3038.3592   -2600.5938    694.22371    12328.455 
   19350    315.82578    241.97514   -3065.8379    -2596.071    52.535793    12325.516 
   19400    307.55169    241.71899   -3057.2998     -2599.84     389.9966    12322.509 
   19450    291.78389    241.14356   -3038.1186   -2604.1121    965.98563    12319.563 
   19500    307.49321    241.75345   -3058.4482   -2601.0753    415.26911    12316.911 
   19550    298.98898    241.44706   -3048.2355    -2603.512    618.36082    12314.372 
   19600    291.10936    241.12723   -3037.5742   -2604.5711    874.37473    12312.027 
   19650    313.52949    241.94242   -3064.7472   -2598.3958    203.70117    12309.952 
   19700    311.07707    241.83849   -3061.2829   -2598.5794    324.67906    12307.867 
   19750    311.68896    241.91805   -3063.9352   -2600.3215    310.53697    12305.776 
   19800    314.00056    242.02964   -3067.6546   -2600.6026    185.61129    12303.674 
   19850    309.99176    241.90447   -3063.4825   -2602.3932    305.15793    12301.513 
   19900    308.66323     241.8623   -3062.0767   -2602.9636    461.01046     12299.35 
   19950    309.85711    241.83746   -3061.2486   -2600.3596    409.17598    12297.273 
   20000    316.08239    242.24573   -3074.8577   -2604.7091    73.285527    12295.224 
   20050    301.57238    241.61016   -3053.6721   -2605.1061    582.68177    12293.094 
   20100    311.03369    241.95338   -3065.1126   -2602.4736    427.85443    12291.063 
   20150    306.28524    241.76356   -3058.7854   -2603.2093    646.17654    12289.146 
   20200    309.37501    241.93362   -3064.4539    -2604.282    577.52048    12287.394 
   20250    294.22948    241.38996    -3046.332   -2608.6879    1008.0516    12285.822 
   20300    328.63081    242.68686   -3089.5619   -2600.7485   -141.33862    12284.535 
   20350    317.75168    242.28483   -3076.1609   -2603.5293    145.03839    12283.092 
   20400    314.40039    242.22857   -3074.2856   -2606.6388    243.85522    12281.532 
   20450    318.53584    242.46253   -3082.0843   -2608.2864    80.533496    12279.919 
   20500    300.27509     241.9001   -3063.3367   -2616.7003    643.43995    12278.221 
   20550      292.212    241.60572   -3053.5239   -2618.8807    909.21992     12276.69 
   20600    300.55113    241.93219   -3064.4064   -2617.3594    575.76749    12275.469 
   20650    313.00261    242.44223   -3081.4077     -2615.84    85.227135     12274.38 
   20700    301.18791     242.1625   -3072.0834   -2624.0892    380.78155    12273.216 
   20750    298.27138    242.10026   -3070.0087   -2626.3527    477.66712     12272.08 
   20800    307.20247    242.38663   -3079.5542   -2622.6138    227.83445    12271.004 
   20850    305.63505    242.46188   -3082.0627   -2627.4537    173.42664    12269.894 
   20900    299.08752    242.22321   -3074.1071   -2629.2371    290.81916    12268.717 
   20950    299.22943    242.18451    -3072.817   -2627.7359    258.89094    12267.527 
   21000    303.92237    242.36069   -3078.6897   -2626.6282    122.33771    12266.308 
   21050    310.54484    242.64696   -3088.2319     -2626.32   -43.571678    12264.979 
   21100    298.90529    242.28268   -3076.0893   -2631.4904     307.3876    12263.485 
   21150    305.28896    242.60937   -3086.9791   -2632.8849    33.091139    12261.942 
   21200    310.11051    242.85345    -3095.115   -2633.8491   -199.68805    12260.253 
   21250    294.22988    242.32933   -3077.6444   -2639.9998    296.05502    12258.333 
   21300    283.62681    242.08576   -3069.5252   -2647.6518    569.32977    12256.405 
   21350    294.00264    242.40071   -3080.0236   -2642.7169     263.5014    12254.599 
   21400    295.22123    242.51019   -3083.6729   -2644.5537     116.8401    12252.796 
   21450    298.32037    242.61093   -3087.0311   -2643.3021    56.139687    12250.897 
   21500    278.57659    241.97136   -3065.7119   -2651.3503    766.96184     12248.93 
   21550    302.38729    242.85457   -3095.1524   -2645.3742    64.920128    12247.137 
   21600    300.86259    242.78127   -3092.7089   -2645.1986     29.82578    12245.263 
   21650    285.62365    242.26225   -3075.4084   -2650.5649    549.19759    12243.263 
   21700    286.61235    242.32455   -3077.4851    -2651.171    569.57007    12241.386 
   21750    307.39014    243.21054   -3107.0181   -2649.7986   -209.89754     12239.62 
   21800    304.30105    243.12124   -3104.0414   -2651.4166   -170.41328    12237.629 
   21850    296.91433    242.86874   -3095.6248   -2653.9873    73.789141    12235.382 
   21900    297.58471    242.84219   -3094.7398   -2652.1051    90.526194    12233.017 
   21950    301.22512    242.97833   -3099.2777   -2651.2282   -8.0445132    12230.533 
   22000    297.86458    242.89248   -3096.4159   -2653.3649    80.676467     12227.89 
   22050    294.95432    242.81379   -3093.7931   -2655.0709    93.207376    12225.144 
   22100    282.12881    242.36722   -3078.9073    -2659.262    431.96711    12222.329 
   22150    302.96789     243.1693   -3105.6432   -2655.0014   -195.26915    12219.535 
   22200    293.01259    242.84368   -3094.7895   -2658.9554    187.81873    12216.537 
   22250    286.42782      242.511   -3083.7001   -2657.6604    585.39113    12213.495 
   22300    293.68883    242.72341   -3090.7803   -2653.9404    432.64038    12210.612 
   22350    297.43892    242.90315   -3096.7716   -2654.3538     401.6182      12207.8 
   22400    295.78854     242.8472   -3094.9067   -2654.9437    502.57607    12205.073 
   22450    308.58687     243.3964   -3113.2134   -2654.2138    18.183551    12202.439 
   22500    305.26635    243.23774   -3107.9248   -2653.8643    138.33341    12199.703 
   22550    305.17827     243.2486   -3108.2868   -2654.3572    296.61317    12196.867 
   22600    288.81609    242.73804   -3091.2681   -2661.6761    861.45187    12194.062 
   22650    284.95451    242.62587    -3087.529   -2663.6807    952.73999    12191.558 
   22700    289.06145    242.79136   -3093.0453   -2663.0883    711.75909    12189.399 
   22750    296.58278    243.05521   -3101.8403   -2660.6959    401.10595    12187.459 
   22800    296.05508    243.00364   -3100.1213   -2659.7618    423.81377    12185.613 
   22850    304.15926    243.27965   -3109.3216   -2656.9077     218.2152    12183.822 
   22900    289.34927       242.68   -3089.3333   -2658.9482    661.13385    12182.042 
   22950    310.73603    243.46288   -3115.4293    -2653.233    38.468628    12180.384 
   23000    298.02232    242.97037   -3099.0124   -2655.7268    521.61242    12178.664 
   23050    294.04768    237.89141   -3096.3805   -2659.0068    616.15253    12177.026 
   23100     302.8753    238.24142   -3108.0473   -2657.5433    289.67298    12175.523 
   23150    301.26849    238.13549   -3104.5162   -2656.4021    403.53308    12174.021 
   23200    302.55063    238.18739   -3106.2463   -2656.2252     405.7358    12172.556 
   23250    308.60364    238.40867   -3113.6222   -2654.5977    231.84955     12171.13 
   23300    313.64568    238.59619   -3119.8731   -2653.3489    90.303382    12169.638 
   23350    296.12873    238.00978   -3100.3259   -2659.8569    673.07773    12168.048 
   23400    278.75253    237.49145   -3083.0482    -2668.425    1234.1385    12166.654 
   23450    294.91076    237.95887   -3098.6291   -2659.9717      761.277    12165.709 
   23500    311.03517     238.4922   -3116.4066   -2653.7654    209.46624    12165.004 
   23550    312.86683    238.60398   -3120.1327    -2654.767    124.18541    12164.241 
   23600    300.66028    238.25553   -3108.5175   -2661.3082    540.93422    12163.374 
   23650    294.62669    237.98819   -3099.6065   -2661.3716     767.8811    12162.619 
   23700    301.29112     238.2257   -3107.5234   -2659.3757    602.45463     12162.07 
   23750    299.70455    238.12747    -3104.249   -2658.4612    702.11769    12161.684 
   23800    304.57525    238.30972    -3110.324   -2657.2914    563.20719    12161.485 
   23850    298.52225    238.02279   -3100.7598   -2656.7306    747.94631    12161.429 
   23900    296.43638    237.94365   -3098.1216    -2657.195    775.27899    12161.582 
   23950    309.08386    238.42157   -3114.0522   -2654.3134    379.80373    12161.951 
   24000     300.1503    238.18379   -3106.1262   -2659.6754    646.50229    12162.361 
   24050    294.47252    237.96364    -3098.788   -2660.7825    829.50059    12162.926 
   24100    292.49959    237.93725   -3097.9084   -2662.8374     788.5297    12163.749 
   24150    299.84412    238.13364   -3104.4548   -2658.4594    585.79397    12164.796 
   24200    308.69747    238.46717   -3115.5724   -2656.4083    300.87484    12165.959 
   24250    305.80664    238.37033   -3112.3442     -2657.48    378.05964    12167.099 
   24300    302.02963    238.22406   -3107.4687   -2658.2225    568.26354     12168.26 
   24350    303.96643    238.25808   -3108.6026   -2656.4756    594.36737    12169.518 
   24400    305.92539    238.40089   -3113.3629    -2658.322    434.25992    12170.902 
   24450    310.19149     238.5686   -3118.9535   -2657.5671    203.30558    12172.322 
   24500    301.25744    238.21179   -3107.0597   -2658.9621    503.00266    12173.678 
   24550    293.36934    237.98834   -3099.6114   -2663.2467    747.57285    12175.113 
   24600    285.73955    237.63199   -3087.7331   -2662.7172    1031.7853    12176.768 
   24650    289.53901    237.73022   -3091.0072   -2660.3399    900.04418    12178.759 
   24700    304.45352    238.34792   -3111.5973   -2658.7458    280.05368    12181.032 
   24750    312.85101    238.68207   -3122.7358   -2657.3936   -22.798524    12183.268 
   24800    293.12625    238.08831   -3102.9438   -2666.9407    501.28935    12185.339 
   24850    303.97687    238.53603   -3117.8675    -2665.725    129.98477     12187.41 
   24900    294.92446     238.2515   -3108.3834   -2669.7056    414.20865    12189.393 
   24950    299.71109    238.31188   -3110.3959   -2664.5984    260.37945     12191.38 
   25000    292.49942    238.08972   -3102.9907     -2667.92    406.27419    12193.326 
   25050    296.03789    233.28816   -3109.6053   -2669.2714    217.36215    12195.262 
   25100    300.19289    233.49667   -3116.5555   -2670.0414    59.215343    12197.111 
   25150    286.25182    232.95078   -3098.3592   -2672.5813    473.74523    12198.832 
   25200    301.54956    233.55686    -3118.562   -2670.0299   -77.870488     12200.53 
   25250    288.10398    232.90916   -3096.9719   -2668.4391     306.6161    12202.039 
   25300    290.86435    233.04723   -3101.5743   -2668.9356    233.01302    12203.476 
   25350    297.14849    233.33846   -3111.2819    -2669.296   -43.412277    12204.824 
   25400    296.07072    233.32671   -3110.8905   -2670.5077   -173.36212    12205.953 
   25450    296.62791    233.30053   -3110.0178   -2668.8062   -280.13252    12206.781 
   25500       295.68    233.28137    -3109.379   -2669.5774   -266.94693    12207.255 
   25550    287.69725    232.96213   -3098.7377   -2670.8098    6.6171569    12207.404 
   25600     296.7651    233.35176   -3111.7252   -2670.3096   -271.75693    12207.311 
   25650    293.19795    233.23159   -3107.7197     -2671.61   -156.62631    12206.903 
   25700    299.72249    233.48113   -3116.0376   -2670.2231   -269.69088    12206.196 
   25750    293.46077    233.39319   -3113.1064   -2676.6058   -111.45175    12205.171 
   25800    296.69747    233.53188   -3117.7292   -2676.4142   -285.26503    12203.888 
   25850    296.97714    233.55607   -3118.5358   -2676.8048   -284.11744    12202.277 
   25900    286.46427    233.24807    -3108.269   -2682.1751    137.13205     12200.35 
   25950    295.27276     233.6054   -3120.1802   -2680.9843   -77.523279    12198.274 
   26000     292.8783    233.48226   -3116.0753    -2680.441    16.663592    12195.994 
   26050    283.06527    238.10117   -3103.3724   -2682.3343    411.07117    12193.558 
   26100    284.16938    238.16697   -3105.5657   -2682.8853    270.27373    12191.166 
   26150    305.72406    238.89453   -3129.8177   -2675.0764    -420.3361    12188.718 
   26200    282.11191    238.10245   -3103.4151    -2683.795    356.76938    12185.963 
   26250    290.80911    238.46164    -3115.388   -2682.8315     17.09528    12183.168 
   26300    302.71914    238.86333   -3128.7775   -2678.5057   -458.44315    12180.227 
   26350    291.27129    238.44419   -3114.8062   -2681.5622   -95.496523    12176.919 
   26400    288.81195    238.27947   -3109.3156   -2679.7297    143.03723    12173.377 
   26450    279.77082    238.11581   -3103.8604   -2687.7226    452.71099    12169.759 
   26500    286.77271    238.28022   -3109.3407    -2682.788    366.33332    12166.227 
   26550    309.45856    239.03956   -3134.6519   -2674.3557   -265.94143    12162.722 
   26600     301.3458    238.82453   -3127.4844   -2679.2553   -2.9504643    12158.963 
   26650    287.18463    238.25272   -3108.4241   -2681.2587    566.21559    12155.064 
   26700     292.8327    238.46798   -3115.5993   -2680.0328    416.25061    12151.287 
   26750    296.01175    238.50355   -3116.7849   -2676.4898    354.97772    12147.589 
   26800    288.99274    238.26672   -3108.8906   -2679.0358    609.32368    12143.943 
   26850     300.5648    238.67533    -3122.511   -2675.4436    284.47676    12140.434 
   26900    289.02605    238.35787   -3111.9291   -2682.0247    599.39815    12136.956 
   26950     295.9811     238.4935   -3116.4499   -2676.2005    377.45024    12133.606 
   27000    304.46176    238.82007   -3127.3355   -2674.4717    235.97775    12130.296 
   27050    283.76182    238.09095   -3103.0316   -2680.9574    1052.3073    12127.006 
   27100    303.00861    238.70111   -3123.3703   -2672.6679    550.49212     12124.04 
   27150    306.93102    238.83753   -3127.9176   -2671.3809     433.8839    12121.236 
   27200    300.37629     238.6142   -3120.4734   -2673.6864    671.25316     12118.51 
   27250    308.02319    238.85531   -3128.5103   -2670.3492    446.36463    12115.957 
   27300    303.20944    238.68516   -3122.8386   -2671.8376    639.96649    12113.511 
   27350    306.77252    238.76143   -3125.3812   -2669.0803    622.75489    12111.227 
   27400    311.35131     238.9093   -3130.3099   -2667.1984    522.44314    12109.094 
   27450    303.84992    238.65705   -3121.9016   -2669.9478    805.42971    12107.085 
   27500    295.33669    238.16033   -3105.3444   -2666.0534    1171.2205    12105.351 
   27550    294.26383    238.15135   -3105.0452     -2667.35    1243.1216     12104.05 
   27600    303.89476    238.45684   -3115.2281   -2663.2077    1032.9751     12103.22 
   27650    296.13897    238.15286   -3105.0953    -2664.611    1369.8007    12102.807 
   27700     306.9298    238.57272   -3119.0908   -2662.5559    1075.3677    12102.904 
   27750    307.84301    238.55889   -3118.6298   -2660.7367    1018.2445    12103.413 
   27800    302.79549     238.3701   -3112.3366   -2661.9513    1134.0584    12104.277 
   27850    306.23649    238.47867   -3115.9558   -2660.4522    998.31528    12105.539 
   27900    310.10928    238.59827   -3119.9422   -2658.6782    903.39109     12107.14 
   27950    308.03664     238.5198   -3117.3266   -2659.1454    1033.2013    12109.034 
   28000    295.28056    238.03631   -3101.2104    -2662.003    1446.9397    12111.306 
   28050    299.05197    233.08848   -3102.9492    -2658.132    1377.2161    12114.113 
   28100    320.11238    233.83787   -3127.9291   -2651.7862    557.04353    12117.415 
   28150    332.25191    234.28144   -3142.7148   -2648.5153    80.978921    12120.802 
   28200    294.72862    232.94959   -3098.3197   -2659.9332    1255.9924    12124.097 
   28250    307.60596    233.36957    -3112.319   -2654.7785    835.69999    12127.751 
   28300    319.46894    233.65465   -3121.8217   -2646.6359    403.51336    12131.628 
   28350    305.74074    233.10912   -3103.6373   -2648.8711    895.73174    12135.538 
   28400     314.8799    233.45758   -3115.2527   -2646.8927     709.2599    12139.653 
   28450    303.91278    233.09341   -3103.1135   -2651.0663    958.72871     12143.98 
   28500    302.66671     232.9964     -3099.88   -2649.6862    896.54982    12148.565 
   28550    312.75051    233.40288   -3113.4292   -2648.2365    496.01871    12153.385 
   28600    318.12689    233.51178   -3117.0592   -2643.8696    336.51211    12158.251 
   28650      297.365    232.82372   -3094.1239    -2651.816    866.38586    12163.109 
   28700    315.91882    233.43968    -3114.656   -2644.7507    295.27098    12168.133 
   28750    309.05779    233.18283   -3106.0942   -2646.3942    598.44727    12173.118 
   28800    302.20415     232.8898   -3096.3267   -2646.8209    871.22988    12178.188 
   28850    315.12267    233.29378   -3109.7928   -2641.0717    377.98115    12183.465 
   28900    303.72166    233.04865   -3101.6216   -2649.8587    532.02254    12188.744 
   28950    291.23446    232.58683   -3086.2278   -2653.0386    839.64227    12194.081 
   29000    306.44838    233.18143   -3106.0478   -2650.2291    259.10104    12199.603 
   29050    302.53729    232.93034   -3097.6779   -2647.6766    323.68617    12205.083 
   29100    301.21009    232.90772   -3096.9242    -2648.897    282.85928    12210.492 
   29150    312.84647    233.27016   -3109.0053   -2643.6699   -201.66112      12215.8 
   29200    300.77293    232.81157   -3093.7189    -2646.342    76.879601    12220.808 
   29250    307.25268    233.05573   -3101.8575   -2644.8425   -94.824846    12225.596 
   29300    318.95667    233.43011   -3114.3371   -2639.9132   -424.11011     12230.09 
   29350    307.96163     232.9683   -3098.9433   -2640.8737   -154.71253    12234.154 
   29400    296.39484    232.55644   -3085.2147   -2644.3498    149.77102    12237.903 
   29450    305.22247    232.87427   -3095.8091   -2641.8139   -35.375209    12241.477 
   29500    301.16558    232.72238   -3090.7461   -2642.7851    110.84456    12244.827 
   29550    294.67056    232.54188   -3084.7292    -2646.429    226.99899    12248.004 
   29600    300.89383    232.75322    -3091.774   -2644.2173    -73.00266    12251.064 
   29650    312.49297    233.17407   -3105.8023   -2640.9927   -487.99743    12253.856 
   29700    305.55257    232.90254   -3096.7515   -2642.2652   -316.52377    12256.196 
   29750    310.34852     233.0669   -3102.2299     -2640.61   -437.46176      12258.1 
   29800    305.35866    232.94914   -3098.3047   -2644.1068   -274.91123    12259.573 
   29850    299.29866    232.71257   -3090.4191   -2645.2351    14.046109    12260.688 
   29900    300.92133    232.71096   -3090.3655   -2642.7678    15.331627    12261.573 
   29950     309.4804    233.01706   -3100.5686     -2640.24   -260.99798    12262.248 
   30000    294.49493    232.46585    -3082.195   -2644.1562    279.21624    12262.618 
   30050    286.42144    237.19547   -3073.1823   -2647.1521       600.92    12262.935 
   30100    302.38406    237.77607   -3092.5357   -2642.7623    107.63361    12263.341 
   30150    303.49557     237.8597   -3095.3232   -2643.8966    19.104451    12263.646 
   30200    306.35633    237.88393    -3096.131   -2640.4492   -49.877088    12263.768 
   30250    306.22716    237.91395   -3097.1317    -2641.642   -104.43674    12263.671 
   30300    297.25707    237.58919   -3086.3064    -2644.159    202.63446    12263.348 
   30350    299.53424    237.63422   -3087.8072   -2642.2727    125.55698    12262.936 
   30400    310.43172    238.11123   -3103.7077    -2641.964   -261.45528    12262.379 
   30450    285.26877    237.19176   -3073.0587    -2648.743    440.71341    12261.561 
   30500    303.44169    237.82632   -3094.2107   -2642.8642   -209.81209    12260.729 
   30550    307.07927    237.98774   -3099.5913   -2642.8342    -392.8627    12259.628 
   30600    303.20629     237.8021   -3093.4032   -2642.4068    -315.6733    12258.139 
   30650    308.30074    238.04178   -3101.3928   -2642.8188   -500.91649    12256.274 
   30700    293.41666    237.56406   -3085.4687   -2649.0337   -51.377696    12253.992 
   30750    306.39389    238.03224   -3101.0746   -2645.3369    -409.5287    12251.448 
   30800     306.8334    238.05492   -3101.8308   -2645.4394   -400.84416    12248.535 
   30850    297.01307    237.74733   -3091.5777   -2649.7933   -42.798671     12245.24 
   30900    297.83996    237.87915   -3095.9717   -2652.9573   -23.104028    12241.739 
   30950    294.63804    237.69878   -3089.9594   -2651.7077    160.24687    12238.083 
   31000    300.58755    237.91707   -3097.2356   -2650.1344    97.513879    12234.317 
   31050    302.71887    238.01668    -3100.556   -2650.2846     63.07142    12230.444 
   31100     308.0818    238.16492   -3105.4972   -2647.2489   -11.921528    12226.447 
   31150    301.99918    237.91381    -3097.127   -2647.9261    306.03501    12222.293 
   31200    297.13295    237.76473   -3092.1577   -2650.1949    436.62569    12218.136 
   31250    305.67982       238.06   -3102.0001   -2647.3245    148.57007    12214.031 
   31300    292.38968    237.71345   -3090.4482   -2655.5407    574.01316    12209.889 
   31350    299.43153    237.95545    -3098.515   -2653.1333    441.20739    12205.858 
   31400     289.3664    237.69485   -3089.8284   -2659.4178    753.85358    12201.932 
   31450    294.25134      237.788   -3092.9332   -2655.2566    659.47364     12198.23 
   31500    288.27892    237.63827   -3087.9422   -2659.1492    800.69715     12194.77 
   31550    304.09988    238.30743   -3110.2476   -2657.9221    376.83459    12191.525 
   31600    293.17509    237.84826   -3094.9418   -2658.8661    776.70571     12188.38 
   31650     294.5453    237.91087    -3097.029   -2658.9152     806.0098     12185.46 
   31700    292.37197    237.92185    -3097.395   -2662.5139    858.37393    12182.824 
   31750    317.21063    238.72196   -3124.0654   -2652.2386    65.598145    12180.432 
   31800    310.30512    238.46309   -3115.4362   -2653.8808    195.12767    12177.954 
   31850    303.97403    238.21923   -3107.3077   -2655.1694    379.15574    12175.392 
   31900    293.90392    237.98123   -3099.3743   -2662.2145     617.1109    12172.872 
   31950    300.08003    238.24787   -3108.2623    -2661.916    314.47815    12170.491 
   32000     293.7219    238.02765   -3100.9218   -2664.0327    462.27558    12168.138 
   32050     289.0154    232.80489   -3093.4964   -2663.6079    702.71171    12165.863 
   32100     299.8509    233.30153   -3110.0511   -2664.0456     314.3046    12163.751 
   32150    299.41049    233.28999   -3109.6663   -2664.3158    245.46011    12161.648 
   32200    308.95739    233.71744   -3123.9148   -2664.3641   -27.559777    12159.452 
   32250    305.11877    233.54439   -3118.1464   -2664.3053    230.52454    12157.078 
   32300    302.25626    233.46925   -3115.6416   -2666.0583    379.82603    12154.639 
   32350    301.71825    233.42903   -3114.3011    -2665.518    395.08354    12152.212 
   32400    303.52816     233.5857   -3119.5233   -2668.0482    354.03343    12149.803 
   32450    293.93695    233.24057   -3108.0191   -2670.8102    739.98128    12147.441 
   32500     296.8336    233.35605   -3111.8682   -2670.3508    725.00634    12145.265 
   32550    293.28664    233.26012   -3108.6708   -2672.4291    765.33106    12143.301 
   32600    293.49495    233.23446   -3107.8154   -2671.2639    766.84884    12141.567 
   32650    299.86681     233.4862   -3116.2067   -2670.1775    583.76078    12140.051 
   32700    296.52979    233.41756   -3113.9186   -2672.8531    621.09162    12138.674 
   32750    293.48472    233.33495   -3111.1651   -2674.6288    619.64387    12137.448 
   32800    296.64586    233.55076   -3118.3588   -2677.1206    470.45846    12136.352 
   32850    299.91369    233.59649   -3119.8829    -2673.784    407.44887    12135.321 
   32900      306.531    233.90671   -3130.2238   -2674.2821     202.1789    12134.304 
   32950    285.50971     233.2252   -3107.5068   -2682.8327    802.67928    12133.249 
   33000    300.09346    233.77519   -3125.8398   -2679.4735    318.64357    12132.363 
   33050    295.68468    228.71605   -3123.8683   -2684.0598    393.42245    12131.503 
   33100    290.41145     228.5008   -3116.6935   -2684.7285    563.51132    12130.649 
   33150    294.83452    228.68539   -3122.8465   -2684.3025    316.31247    12129.864 
   33200    301.01855    228.91874   -3130.6246   -2682.8823    134.71111    12129.036 
   33250    285.04581      228.374   -3112.4665   -2688.4825    622.96741    12128.131 
   33300    296.62111    228.75728   -3125.2426   -2684.0412    345.32322    12127.295 
   33350    292.16088    228.59072   -3119.6907   -2685.1236    417.11482    12126.465 
   33400    296.28405    228.79447   -3126.4825   -2685.7824    185.62571    12125.651 
   33450    310.44753    229.30238   -3143.4126   -2681.6454    -203.3335    12124.712 
   33500    300.79692    229.05624    -3135.208   -2687.7954    102.28831    12123.487 
   33550    293.87414    228.84704   -3128.2348   -2691.1193    355.81919    12122.122 
   33600    305.74228    229.27512   -3142.5041   -2687.7357   -6.2595232    12120.705 
   33650    297.91117    228.94645   -3131.5484   -2688.4282    228.71632     12119.11 
   33700    288.32723    228.70721   -3123.5738   -2694.7089    518.54786    12117.438 
   33750    286.57204     228.7403   -3124.6766   -2698.4224    579.62887    12115.848 
   33800    287.03978    228.71739   -3123.9131   -2696.9632    535.84937    12114.379 
   33850     298.9125    229.14874   -3138.2915   -2693.6818    91.716982    12112.988 
   33900    296.06918    229.08039    -3136.013   -2695.6325    158.34679    12111.469 
   33950    290.08568    228.83691    -3127.897   -2696.4166    448.41324    12109.834 
   34000    283.07633    228.74645   -3124.8816    -2703.827     596.2405     12108.25 
   34050    289.56182    228.94764   -3131.5882   -2700.8869    371.34314    12106.767 
   34100    288.80585     228.8975   -3129.9166   -2700.3398    416.64538    12105.303 
   34150    281.94789    228.66155   -3122.0517   -2702.6756    651.69565    12103.875 
   34200    294.57509    229.05139   -3135.0464   -2696.8883    226.57132    12102.565 
   34250    304.42091    229.43863   -3147.9545   -2695.1514   -150.75035    12101.178 
   34300    302.37808     229.4615   -3148.7166   -2698.9521   -58.767562    12099.525 
   34350    280.95703    228.70912   -3123.6372   -2705.7349     608.6582    12097.685 
   34400    288.91981     229.0186   -3133.9532   -2704.2069    414.82154    12095.917 
   34450     290.8106    229.16429   -3138.8098    -2706.251    350.71738     12094.18 
   34500    283.22119    228.95394   -3131.7978   -2710.5278    551.74636    12092.453 
   34550    296.66662    229.45136   -3148.3787   -2707.1095    96.838211    12090.787 
   34600    293.50919    229.41849   -3147.2831   -2710.7104    139.12988    12088.995 
   34650    299.29362    229.57247   -3152.4155   -2707.2389   -8.1168467    12087.046 
   34700    290.87758    229.22622   -3140.8739   -2708.2155    192.13784     12084.92 
   34750    302.90607    229.62132   -3154.0439   -2703.4941   -159.31351    12082.659 
   34800    284.66233    229.03152   -3134.3839   -2710.9702    426.66772    12080.171 
   34850     292.1011    229.34354   -3144.7847   -2710.3065    256.66778    12077.664 
   34900    285.56848    229.11552    -3137.184   -2712.4225    494.36437    12075.146 
   34950    295.04928    229.44408    -3148.136   -2709.2725    209.86337    12072.664 
   35000    301.47242    229.77614   -3159.2047   -2710.7873   -14.402797    12070.094 
   35050    281.99155    224.09644    -3136.548    -2717.107    658.35339    12067.369 
   35100    291.75448    224.36658   -3145.5526     -2711.59    435.39617     12064.76 
   35150    304.69392    224.70092   -3156.6972   -2703.4881    89.755078    12062.162 
   35200    302.77649    224.65076   -3155.0254   -2704.6683    251.06846    12059.409 
   35250    296.24019     224.5736   -3152.4533   -2711.8184    470.38427    12056.595 
   35300     291.2486    224.48503   -3149.5011   -2716.2909    641.83478    12053.815 
   35350    284.42228    224.28698   -3142.8992   -2719.8426    816.20333    12051.178 
   35400    292.72349    224.55331   -3151.7769   -2716.3729    537.56448    12048.745 
   35450    293.49795    224.61174   -3153.7246   -2717.1686    520.46971    12046.399 
   35500    301.07691     224.8504   -3161.6799   -2713.8508    356.35919    12044.115 
   35550    303.74096    224.88279   -3162.7596   -2710.9679    306.15882    12041.813 
   35600    293.00414     224.5863   -3152.8765   -2717.0551    536.95222    12039.466 
   35650    296.94401    224.71324    -3157.108   -2715.4262    396.21248    12037.156 
   35700    289.43053    224.38228   -3146.0759     -2715.57    663.70233    12034.877 
   35750    296.52614    224.68066   -3156.0221    -2714.962    449.70812    12032.713 
   35800    301.24342    224.79786   -3159.9288    -2711.852    384.60775    12030.584 
   35850    300.76236    224.84092   -3161.3641   -2714.0029    423.18668    12028.438 
   35900    277.07093    224.06072   -3135.3572   -2723.2352     1034.605    12026.354 
   35950    299.27391    224.79515   -3159.8383    -2714.691    374.51899    12024.526 
   36000    292.61697    224.57425   -3152.4751   -2717.2296    667.42916    12022.734 
   36050    285.51696    219.41322   -3147.1072   -2722.4224    881.80569    12021.072 
   36100    299.39375    219.88881   -3162.9605    -2717.635    433.46103    12019.628 
   36150    296.27294    219.74666   -3158.2219   -2717.5384    592.84364    12018.204 
   36200    295.38993    219.80695   -3160.2317   -2720.8616    606.49346    12016.854 
   36250     297.5089    219.88633   -3162.8777   -2720.3557    515.06849      12015.6 
   36300    306.23116    220.20171   -3173.3904   -2717.8948    275.72592    12014.378 
   36350    301.08591    220.03666   -3167.8886   -2720.0462    359.61665    12013.097 
   36400    302.15768    219.99266   -3166.4221   -2716.9854    374.98659    12011.773 
   36450    300.70757    219.91405   -3163.8016   -2716.5219    497.37316    12010.425 
   36500    289.32742    219.62548   -3154.1825   -2723.8299    870.92979    12009.112 
   36550    274.75388    219.21123   -3140.3742   -2731.6987    1280.7646     12008.05 
   36600    285.39103    219.54544   -3151.5146    -2727.017    916.45103    12007.408 
   36650    300.37076    220.02808   -3167.6027   -2720.8239    327.35171     12007.03 
   36700    324.60932    220.78908   -3192.9692   -2710.1375   -360.03287    12006.565 
   36750    298.04847     219.8762   -3162.5399   -2719.2154    564.17987    12005.747 
   36800    285.59338     219.5051   -3150.1699   -2725.3714    1006.2125    12004.966 
   36850    309.84038    220.30144   -3176.7146   -2715.8505     251.5464     12004.42 
   36900    302.43684    220.15805    -3171.935   -2722.0831    434.68014    12003.809 
   36950    287.11726    219.55888   -3151.9626   -2724.8974    882.45603    12003.216 
   37000    305.44978    220.16585   -3172.1951   -2717.8617    318.77205    12002.805 
   37050    294.07157      219.817   -3160.5668   -2723.1576    623.96738    12002.379 
   37100    301.80637    220.11691   -3170.5635   -2721.6494    379.30663    12002.006 
   37150    304.04086    220.20574   -3173.5247   -2721.2869    348.33208    12001.608 
   37200    287.12608    219.59358   -3153.1192   -2726.0409    900.61701    12001.185 
   37250    287.29835    219.64496   -3154.8318   -2727.4973    817.80834    12000.981 
   37300    290.39957    219.72313   -3157.4376   -2725.4903    660.56486    12000.985 
   37350    300.10964    220.02394   -3167.4648   -2721.0744    401.28149    12001.103 
   37400    306.98712    220.23228   -3174.4094   -2717.7894    198.29276    12001.192 
   37450    283.52685    219.57489   -3152.4963   -2730.7716    921.17943    12001.202 
   37500    300.21642    220.03535   -3167.8449   -2721.2958    598.24425    12001.406 
   37550    303.71078    220.19426    -3173.142   -2721.3953    415.88118    12001.715 
   37600    307.25451    220.28844   -3176.2814   -2719.2636    312.55626    12002.011 
   37650    295.97935    219.87038   -3162.3459   -2722.0991    647.48927    12002.256 
   37700     297.5091    219.91843   -3163.9478   -2721.4256    524.11667     12002.57 
   37750    305.07893    220.14794    -3171.598   -2717.8162     330.0584    12002.925 
   37800     282.0109    219.43086   -3147.6953   -2728.2255    1020.4733    12003.269 
   37850     297.4118    219.92208   -3164.0694   -2721.6919    587.16433    12003.835 
   37900    297.53605    219.94802   -3164.9341   -2722.3718    580.76214     12004.52 
   37950    296.55812    219.87045   -3162.3482   -2721.2405    689.62393    12005.281 
   38000    298.96162    219.94228   -3164.7425   -2720.0598    568.99154    12006.161 
   38050    320.11796    215.60103    -3186.701   -2710.5498   -47.121168    12007.045 
   38100    286.86573    214.55971   -3151.9902   -2725.2992    880.32232    12007.734 
   38150    301.91124    214.96372   -3165.4573   -2716.3872    540.00796     12008.55 
   38200    296.49406    214.70484    -3156.828   -2715.8156    737.68296    12009.442 
   38250    290.05146    214.59065   -3153.0216    -2721.592    923.86008    12010.459 
   38300    294.06308    214.72181   -3157.3938   -2719.9972    790.26702    12011.701 
   38350    291.92222    214.67455   -3155.8183   -2721.6061    752.06925    12013.125 
   38400    302.46775     214.9836   -3166.1201   -2716.2223    442.63495     12014.68 
   38450     307.3455    215.13426   -3171.1419   -2713.9888    358.96468    12016.219 
   38500    288.76411    214.43748   -3147.9159   -2718.4012    874.85115    12017.729 
   38550    304.55017     215.0263   -3167.5433    -2714.548    342.97977    12019.375 
   38600    298.66377    214.77582   -3159.1941   -2714.9544    518.39151    12021.016 
   38650    306.93688    215.01667   -3167.2222   -2710.6768    265.98012    12022.643 
   38700    312.95706    215.15435   -3171.8117   -2706.3118    150.63982     12024.14 
   38750    291.68621    214.45648   -3148.5493   -2714.6881    793.95588    12025.505 
   38800     301.5469    214.70509   -3156.8364   -2708.3082    620.95441    12026.974 
   38850    304.79223    214.86778   -3162.2595   -2708.9041    469.07635    12028.511 
   38900    292.62145    214.53034   -3151.0114   -2715.7592    715.20958    12030.059 
   38950    298.44852    214.75075   -3158.3582   -2714.4386    472.68879    12031.711 
   39000    310.88188    214.97495   -3165.8317   -2703.4185    189.20785    12033.343 
   39050    288.89796    214.23555   -3141.1849    -2711.471    780.09736    12034.858 
   39100    299.51641    214.65356   -3155.1187   -2709.6107    370.33088    12036.459 
   39150    288.79824    214.27879   -3142.6263   -2713.0608    570.97053    12038.042 
   39200     303.5353    214.71005   -3157.0017   -2705.5159    196.21219    12039.627 
   39250    302.86735    214.66417   -3155.4724   -2704.9802    250.75247    12041.092 
   39300    309.48544    214.87016   -3162.3385   -2702.0024    107.34869    12042.417 
   39350    303.24112    214.62988   -3154.3294   -2703.2812    333.73057    12043.545 
   39400    313.62918    214.90976   -3163.6586   -2697.1589    80.483295    12044.549 
   39450    297.08913    214.42856   -3147.6185    -2705.721    477.96141    12045.381 
   39500    297.06493    214.45143    -3148.381   -2706.5194    537.43936    12046.182 
   39550    303.39202    214.59988   -3153.3293   -2702.0566    490.24372    12047.012 
   39600    299.59672    214.38159    -3146.053   -2700.4256    593.16604    12047.858 
   39650     320.1903    215.02395    -3167.465   -2691.2062    36.751318    12048.708 
   39700    303.98012    214.54333   -3151.4444    -2699.297     468.2207    12049.378 
   39750    304.47924    214.47144   -3149.0479   -2696.1582    492.51672    12050.014 
   39800    313.97184    214.70174   -3156.7246   -2689.7153    361.80898    12050.635 
   39850    297.71979    214.17142   -3139.0475   -2696.2118    856.20812    12051.229 
   39900    304.01054    214.40739    -3146.913   -2694.7204    564.73065    12051.975 
   39950    311.86379    214.58967   -3152.9889   -2689.1152    290.69271    12052.749 
   40000    308.90427    214.49115   -3149.7051   -2690.2334     357.6507    12053.433 
   40050    322.29409    214.88369   -3162.7896   -2683.4016    10.910738    12054.013 
   40100    300.47187    214.19044   -3139.6813   -2692.7522    677.28506    12054.385 
   40150    303.70249    214.24612   -3141.5375    -2689.803    647.82281    12054.821 
   40200     321.8997    214.79463    -3159.821   -2681.0196    211.58979     12055.31 
   40250    320.27243    214.78007   -3159.3358   -2682.9548    336.28846    12055.672 
   40300    307.96677    214.28174   -3142.7246   -2684.6474    648.96706    12055.958 
   40350    309.94211    214.37489   -3145.8296   -2684.8142    468.88211    12056.296 
   40400    320.14341    214.72738   -3157.5792   -2681.3902    211.24144    12056.619 
   40450    301.89585    214.15898   -3138.6327   -2689.5855    830.50459    12056.839 
   40500    307.24618     214.2767   -3142.5566   -2685.5512    747.70975    12057.189 
   40550    305.01534    214.24813   -3141.6043   -2687.9171     748.5592    12057.692 
   40600    319.24361    214.68615   -3156.2051   -2681.3545    391.80971     12058.29 
   40650    307.15754    214.21205   -3140.4015    -2683.528    711.84759    12058.882 
   40700    305.90758    214.21092   -3140.3639   -2685.3495    666.27073    12059.572 
   40750    309.84329    214.29711   -3143.2371   -2682.3687    487.94284    12060.342 
   40800    310.30679    214.30917    -3143.639   -2682.0812    399.97143    12061.114 
   40850    325.34743    214.82404   -3160.8013   -2676.8716    41.739433    12061.812 
   40900    323.96909    214.83862   -3161.2873   -2679.4078    167.93019    12062.287 
   40950    313.62984    214.44904   -3148.3012   -2681.8006    540.73521    12062.599 
   41000    301.33686    213.93325   -3131.1085   -2682.8927    930.90621    12062.942 
   41050     312.3999    219.41653   -3147.2178   -2682.5466    595.12697    12063.465 
   41100    306.96196    219.31259   -3143.7528   -2687.1702    625.94421    12064.104 
   41150    313.70261     219.5062   -3150.2067   -2683.5978    352.06026    12064.809 
   41200    305.19813    219.27673   -3142.5577   -2688.5986    534.11881    12065.477 
   41250    294.78984    218.95579   -3131.8596    -2693.382    835.87769    12066.178 
   41300    291.37329    218.83952   -3127.9838   -2694.5881    946.44204     12067.07 
   41350    309.73981    219.45006   -3148.3352   -2687.6207    376.79796    12068.195 
   41400    318.11913    219.69664   -3156.5546   -2683.3765    134.72939    12069.291 
   41450    302.05007    219.23997   -3141.3322   -2692.0556    541.89902    12070.238 
   41500    304.90174    219.34022    -3144.674   -2691.1557     376.7033    12071.184 
   41550    303.69006    219.41304   -3147.1013   -2695.3854    327.01303    12072.103 
   41600    294.78434    219.18574   -3139.5247   -2701.0554    677.70597     12072.98 
   41650    298.00173    219.37842   -3145.9473   -2702.6923    591.25657    12073.949 
   41700    294.20663    219.34811   -3144.9371    -2707.327    498.48865        12075 
   41750    292.29237     219.2767   -3142.5567    -2707.794    455.64928    12076.074 
   41800    300.11554    219.50449   -3150.1495   -2703.7504    138.29208    12077.129 
   41850    307.77904    219.71392   -3157.1308   -2699.3328   -133.77891    12078.019 
   41900    303.28917    219.65848   -3155.2827    -2704.163   -29.554089    12078.622 
   41950    295.15379    219.44499   -3148.1662   -2709.1473    243.57459     12078.98 
   42000    294.86696    219.48669   -3149.5564   -2710.9642    237.33391    12079.216 
   42050    292.86868    219.47962   -3149.3206   -2713.7006    163.80717    12079.352 
   42100    288.53938    219.36341   -3145.4471   -2716.2666    167.90131    12079.344 
   42150    285.07517    219.29622   -3143.2073   -2719.1796    242.17927    12079.193 
   42200    292.07706     219.4691   -3148.9701   -2714.5276    41.700673    12078.931 
   42250    305.79643     219.9564   -3165.2133   -2710.3643   -397.81409    12078.447 
   42300    286.21238    219.35474   -3145.1579   -2719.4386    190.75752    12077.586 
   42350    282.77216    219.39023   -3146.3409   -2725.7387    187.47784    12076.561 
   42400    283.58281    219.36398    -3145.466   -2723.6581     110.0208    12075.415 
   42450    286.43689    219.53534   -3151.1779   -2725.1248    -13.26562    12074.096 
   42500    299.55749    219.87108   -3162.3692   -2716.8001   -363.42831    12072.525 
   42550     283.9977    219.44183   -3148.0609   -2725.6359    116.13551    12070.578 
   42600     291.8299    219.81288   -3160.4293   -2726.3544   -51.619762    12068.424 
   42650    296.77885     219.9863     -3166.21   -2724.7739    -165.4926    12066.024 
   42700    284.64435    219.57193   -3152.3976   -2729.0107    97.024869     12063.33 
   42750    288.14829    219.72138   -3157.3792   -2728.7805   -77.480043    12060.424 
   42800    283.34462    219.58132   -3152.7108   -2731.2571    220.60901    12057.273 
   42850    282.99846    219.58718   -3152.9059   -2731.9671    276.62228     12054.02 
   42900    292.06838    219.82333   -3160.7776    -2726.348   -39.569749    12050.693 
   42950    294.16491    219.83122   -3161.0406   -2723.4926   -90.733367     12047.12 
   43000    298.28952    220.04263   -3168.0875   -2724.4045   -118.44652    12043.253 
   43050    289.54608    214.75165   -3158.3882   -2727.7104    287.47971    12039.124 
   43100    286.53321    214.79994    -3159.998   -2733.8016    407.60248    12034.878 
   43150    274.77905    214.49154    -3149.718    -2741.005    677.57436    12030.624 
   43200    288.74424    214.91046    -3163.682   -2734.1968    272.47953    12026.455 
   43250    300.89504    215.29457   -3176.4856   -2728.9271   -95.023509    12022.209 
   43300    300.01568    215.25789   -3175.2631   -2729.0125   -15.607421    12017.702 
   43350    295.28578    215.07036    -3169.012   -2729.7968     259.8888    12012.938 
   43400    305.00873     215.3883   -3179.6101   -2725.9327    54.447425    12008.034 
   43450     303.2873    215.36005   -3178.6683   -2727.5514    115.23502    12002.942 
   43500    302.66312    215.30846   -3176.9487   -2726.7603    260.45236    11997.656 
   43550    292.30511    214.92907   -3164.3022   -2729.5205    727.15868    11992.284 
   43600    288.39206     214.7504   -3158.3466   -2729.3853    991.48263    11987.045 
   43650    296.13495    215.06443   -3168.8142   -2728.3359    852.00618    11982.077 
   43700    304.36651    215.29541   -3176.5135   -2723.7914    774.57208    11977.322 
   43750    294.74437    215.02584   -3167.5278   -2729.1179    1098.2013    11972.737 
   43800    296.79481    215.08936   -3169.6452   -2728.1854    1024.6095    11968.482 
   43850    302.24796    215.13539   -3171.1795   -2721.6086    954.28345    11964.514 
   43900    292.83472    214.88301    -3162.767   -2727.1976    1283.8159     11960.82 
   43950    300.38968     215.1247   -3170.8234   -2724.0165    1184.6489    11957.524 
   44000    302.93147    215.22126   -3174.0419   -2723.4543    1115.3623    11954.618 
[...]
   89400     294.2257    210.57768   -3185.9225   -2748.2841     1997.952    11837.657 
   89450    293.26944    210.62242   -3187.4139   -2751.1978    1990.7787    11838.038 
   89500    298.51245    210.71121   -3190.3736   -2746.3589    1772.2677    11839.175 
   89550    298.96724    210.74489   -3191.4962   -2746.8051    1761.2239    11840.976 
   89600    306.34261    211.00804   -3200.2679   -2744.6064    1517.5402    11843.403 
   89650    307.13287    211.04213   -3201.4043   -2744.5674    1427.5182    11846.363 
   89700    293.31802    210.61528    -3187.176   -2750.8876     1717.827    11849.814 
   89750    301.60218    210.83002    -3194.334   -2745.7236     1479.232    11853.859 
   89800    307.53984    210.98765   -3199.5884   -2742.1462    1303.2042    11858.417 
   89850    301.59645    210.85276   -3195.0921   -2746.4902    1387.7365    11863.411 
   89900    305.72235    211.03443   -3201.1475   -2746.4087    1185.7373    11868.856 
   89950    300.39185    210.95178   -3198.3928   -2751.5827    1231.8674    11874.671 
   90000     295.6894    210.79054    -3193.018   -2753.2024    1281.1303    11880.888 
   90050    297.69897    210.90652   -3196.8839   -2754.0792    1119.0123    11887.512 
   90100    295.54912    210.76953   -3192.3177   -2752.7108    1072.2835    11894.478 
   90150    308.34767    211.17225   -3205.7417   -2747.0979    626.63995    11901.734 
   90200    290.68063    210.67895   -3189.2983   -2756.9329    960.06551    11909.121 
   90250     296.0573    210.91184   -3197.0614   -2756.6986    610.48959    11916.724 
   90300    302.52777    211.11871    -3203.957   -2753.9699    332.48784    11924.419 
   90350    291.14291    210.72261   -3190.7537   -2757.7007    636.25516    11932.075 
   90400    288.41128     210.6451     -3188.17   -2759.1801    625.66139    11939.788 
   90450    282.08955    210.45735   -3181.9118    -2762.325    647.18386    11947.594 
   90500    300.33977    210.97414   -3199.1382   -2752.4055    105.95648    11955.463 
   90550    295.42642    210.90636   -3196.8788   -2757.4544    160.86461    11963.179 
   90600    290.33258    210.78559   -3192.8531   -2761.0054    177.69791    11970.729 
   90650    296.75857    210.97751   -3199.2502   -2757.8443   -198.89316    11978.112 
   90700    295.47176    210.94667   -3198.2223   -2758.7304   -298.28254    11985.155 
   90750    285.59683    210.57167   -3185.7222   -2760.9186   -68.895948    11991.807 
   90800    272.80868     210.1794   -3172.6466   -2766.8644    157.32408    11998.203 
   90850    288.74258    210.64714   -3188.2381   -2758.7554   -414.05418    12004.401 
   90900       294.01    210.96077   -3198.6924   -2761.3749    -740.6325    12010.134 
   90950     290.7082    210.78445    -3192.815   -2760.4086   -698.11587    12015.239 
   91000    292.58375    210.90008   -3196.6694   -2761.4732   -757.61005    12019.714 
   91050     289.7984    210.71551   -3190.5171   -2759.4639    -593.1257    12023.546 
   91100    282.36272    210.47935   -3182.6449   -2762.6517   -349.34334    12026.808 
   91150    280.11713    210.40792    -3180.264    -2763.611   -303.64572     12029.64 
   91200    285.71613    210.58299   -3186.0996   -2761.1185   -529.75631    12032.057 
   91250    277.91144      210.372   -3179.0668   -2765.6946    -425.6527    12033.956 
   91300    280.00178    210.49542   -3183.1805   -2766.6991    -596.6796    12035.366 
   91350    281.54692    210.51549   -3183.8497     -2765.07   -665.52076    12036.217 
   91400     280.1992    210.43769   -3181.2563   -2764.4812   -626.19543    12036.489 
   91450    298.47665    210.95099   -3198.3662   -2754.4048   -1114.2776    12036.134 
   91500    269.91821    210.11363   -3170.4543   -2768.9714   -279.57743    12035.003 
   91550    272.51852    210.24324   -3174.7747    -2769.424   -223.12329    12033.432 
   91600    288.78099    210.56454   -3185.4848    -2755.945   -555.71117    12031.491 
   91650    304.31844    211.05942   -3201.9806     -2749.33   -957.69013    12028.984 
   91700    290.38634    210.60791   -3186.9302   -2755.0025   -509.29117    12025.748 
   91750    271.90463      210.044   -3168.1333   -2763.6957    78.950239    12021.984 
   91800    281.35072    210.36786   -3178.9285   -2760.4407   -108.90234    12017.981 
   91850    291.12256    210.50473    -3183.491   -2750.4683   -285.48769    12013.692 
   91900    296.95103    210.54898   -3184.9661    -2743.274   -294.14476    12008.982 
   91950    297.52885     210.5764   -3185.8799   -2743.3283   -143.73675    12003.848 
   92000    292.48349    210.29625   -3176.5416   -2741.4946    142.42375    11998.389 
   92050    303.83446    205.60409    -3186.803   -2734.8723   -45.564252    11992.693 
   92100    292.00297    205.20465   -3173.4883    -2739.156    463.21272    11986.735 
   92150    297.17155    205.36135   -3178.7116   -2736.6915    501.50062    11980.708 
   92200      307.229     205.5266   -3184.2201   -2727.2402    424.62603    11974.652 
   92250    307.01677    205.57895   -3185.9649   -2729.3008    428.01725    11968.531 
   92300    302.05608    205.34504   -3178.1681   -2728.8826    622.03342    11962.348 
   92350    313.84841    205.71008   -3190.3359   -2723.5101    474.76045    11956.165 
   92400    301.01231    205.32287   -3177.4289   -2729.6959    940.18223    11949.988 
   92450    305.81774    205.35608   -3178.5361   -2723.6554    1004.7414     11943.99 
   92500    312.70378    205.44058   -3181.3527   -2716.2295    877.41526    11938.215 
   92550    326.14821    205.81725   -3193.9084   -2708.7877    557.07942     11932.58 
   92600    312.91889    205.42307    -3180.769   -2715.3259    1050.4502    11926.983 
   92650    317.05935    205.59558   -3186.5194   -2714.9177     1003.586      11921.6 
   92700    316.57129    205.63026   -3187.6754   -2716.7996    1035.0278    11916.449 
   92750    320.00569    205.71358   -3190.4528   -2714.4686    1128.2653    11911.535 
   92800    323.98589    205.83318   -3194.4393   -2712.5348    1056.4112    11906.916 
   92850    323.10194    205.76887   -3192.2956    -2711.706    1134.5093    11902.549 
   92900    308.73799     205.3903   -3179.6765   -2720.4522    1581.5257    11898.481 
   92950    312.58829    205.45954   -3181.9845   -2717.0331    1604.4234    11894.926 
   93000    310.45718    205.42316    -3180.772   -2718.9905    1693.2089    11891.922 
   93050    309.15906    210.36569   -3178.8564   -2719.0057    1737.7804    11889.501 
   93100    313.02991    210.41623    -3180.541   -2714.9327    1580.1504    11887.703 
   93150    317.34424    210.67685   -3189.2285    -2717.203    1317.4114    11886.448 
   93200    314.85642    210.52612   -3184.2039   -2715.8788    1506.6068     11885.62 
   93250    319.14311    210.67654    -3189.218   -2714.5168    1440.3413    11885.286 
   93300    313.98937    210.60125   -3186.7083   -2719.6729    1511.3697     11885.44 
   93350    311.53397    210.58516    -3186.172   -2722.7889    1486.6678    11886.095 
   93400    311.07998    210.49968   -3183.3225   -2720.6146    1512.4289     11887.25 
   93450    305.39253    210.34244   -3178.0812    -2723.833    1648.4768    11888.936 
   93500    321.65788    210.86674   -3195.5579   -2717.1161     1158.401    11891.171 
   93550    313.93547    210.64256   -3188.0855   -2721.1302    1278.5566    11893.767 
   93600    308.31363    210.51382   -3183.7939   -2725.2007    1358.5804    11896.756 
   93650    312.48708    210.61024    -3187.008   -2722.2072    1177.7597    11900.177 
   93700    316.73527    210.77816   -3192.6054   -2721.4857    959.80526     11903.94 
   93750    316.81431    210.79815   -3193.2718   -2722.0345    842.88015    11907.937 
   93800    310.32609    210.55931   -3185.3103   -2723.7238    880.82552    11912.099 
   93850    305.41756    210.37847   -3179.2824   -2724.9969     964.2434    11916.448 
   93900    306.64383    210.52043   -3184.0145    -2727.905     920.8481    11921.029 
   93950     294.2177    210.28219   -3176.0729   -2738.4464    1180.0507    11925.869 
   94000    303.40139    210.58894   -3186.2979   -2735.0113    843.75745    11931.041 
   94050    286.34672     210.1206   -3170.6867   -2744.7677    1241.5105    11936.452 
   94100    297.09387    210.50381   -3183.4603   -2741.5557    845.83128     11942.22 
   94150    299.69914    210.52843   -3184.2811   -2738.5013    652.01912    11948.196 
   94200    297.72323    210.45985   -3181.9951   -2739.1543    598.12237    11954.273 
   94250     301.8439    210.57704   -3185.9012   -2736.9313    428.16225    11960.411 
   94300    305.14914     210.7866   -3192.8865   -2739.0003    235.82496    11966.514 
   94350     306.1606    210.83755   -3194.5849   -2739.1942    145.25152    11972.485 
   94400    291.99453     210.4402   -3181.3401   -2747.0204    436.16406    11978.301 
   94450    291.30209    210.45492   -3181.8305   -2748.5408    266.17679    11984.076 
   94500     293.4414    210.48475   -3182.8249    -2746.353    105.00786    11989.749 
   94550    283.42084    210.21067    -3173.689    -2752.122    282.99361     11995.26 
   94600    296.11675    210.64897   -3188.2989   -2747.8476   -136.21087    12000.623 
   94650    287.73301     210.3941   -3179.8034   -2751.8224    -47.42122    12005.696 
   94700    303.43693    210.81311   -3193.7704    -2742.431   -587.61616    12010.447 
   94750    290.29991    210.42668   -3180.8892   -2749.0901   -339.14082    12014.679 
   94800    281.43664    210.14928   -3171.6427   -2753.0271   -55.632597    12018.469 
   94850    290.15375    210.43122   -3181.0407    -2749.459   -291.23293    12021.963 
   94900     282.9422    210.28729   -3176.2431   -2755.3881   -222.43399    12025.089 
   94950    302.70212    210.85241   -3195.0802   -2744.8337   -806.52107    12027.783 
   95000    291.88829    210.56949   -3185.6496   -2751.4879    -536.4027    12029.842 
   95050      290.152    215.48259   -3182.7529   -2751.1738   -401.79727     12031.35 
   95100    287.19432    215.48527   -3182.8423   -2755.6625   -318.24004    12032.404 
   95150    287.66942     215.5174   -3183.9132   -2756.0267   -402.27518    12033.044 
   95200     291.1169    215.55602   -3185.2007   -2752.1864   -592.63152    12033.238 
   95250    285.50618    215.35829   -3178.6096   -2753.9408   -460.02339    12032.887 
   95300    289.18112    215.43664   -3181.2215   -2751.0865   -503.05324    12032.033 
   95350    297.63179    215.73782   -3191.2608   -2748.5561   -670.23718    12030.659 
   95400    278.96939    215.14161    -3171.387   -2756.4412   -130.61407     12028.73 
   95450    277.22794    215.02587   -3167.5289   -2755.1733   -21.019489    12026.458 
   95500    281.07789    215.18456   -3172.8187   -2754.7367    -88.53469    12023.922 
   95550    292.79205    215.58025   -3186.0085   -2750.5025   -363.24554    12021.088 
   95600    292.36476    215.50661   -3183.5536   -2748.6832    -320.1823    12017.833 
   95650    287.00358    215.34879   -3178.2929   -2751.3969   -113.32524    12014.153 
   95700    281.27048    215.13758   -3171.2527   -2752.8842    145.48151    12010.172 
   95750    292.87312    215.47032   -3182.3439   -2746.7173   -126.53433    12005.993 
   95800    295.48096    215.46213   -3182.0711   -2742.5656   -99.802039    12001.508 
   95850    292.00458    215.43907   -3181.3024   -2746.9677    41.881207    11996.715 
   95900    296.48711    215.55507   -3185.1689   -2744.1667    146.01213    11991.677 
   95950    294.32467     215.4407   -3181.3568   -2743.5711    314.72363    11986.476 
   96000    303.01401    215.66483   -3188.8276   -2738.1172    135.34234    11981.166 
   96050    290.41884    210.37431   -3179.1437   -2747.1677     517.7221    11975.696 
   96100    296.93268    210.56629   -3185.5428    -2743.878    357.84303    11970.191 
   96150    302.34677    210.56478   -3185.4927   -2735.7748    292.25894    11964.612 
   96200     295.6804     210.3819   -3179.3967   -2739.5945    548.97493    11958.939 
   96250    309.17956    210.67568   -3189.1894   -2729.3083     350.6734    11953.241 
   96300    303.63921    210.50766   -3183.5887   -2731.9484    560.65406    11947.481 
   96350    322.42425    211.11465   -3203.8218   -2724.2402    143.55259    11941.689 
   96400    306.34383    210.63079    -3187.693   -2732.0298    703.23058    11935.746 
   96450    297.87084    210.39123   -3179.7076   -2736.6473    1078.5921    11929.858 
   96500    301.66385    210.50384   -3183.4613   -2734.7592    1018.2641    11924.237 
   96550    304.30738    210.49765   -3183.2551    -2730.621    1033.2757    11918.888 
   96600    301.51614    210.42426   -3180.8086   -2732.3262    1109.0426    11913.808 
   96650    319.81663    210.93736   -3197.9121   -2722.2091    734.45307    11908.997 
   96700    318.15582    210.89847   -3196.6155   -2723.3829    974.52672    11904.306 
   96750    311.83302    210.68082   -3189.3606   -2725.5326    1256.8874    11899.839 
   96800     313.8089    210.63094   -3187.6979    -2720.931    1300.1805    11895.733 
   96850    305.01231    210.35223   -3178.4076   -2724.7249    1693.3271    11892.039 
   96900    304.05043    210.23696   -3174.5654   -2722.3134     1824.197    11888.943 
   96950    308.01918    210.30854   -3176.9512    -2718.796    1715.0778    11886.505 
   97000    315.89813    210.63433   -3187.8109   -2717.9364    1525.0265    11884.666 
   97050    311.47328    215.45928   -3181.9759    -2718.683    1656.8619    11883.358 
   97100    320.49177    215.74192   -3191.3973   -2714.6901    1328.0782    11882.609 
   97150    312.39671    215.48269   -3182.7563   -2718.0898    1610.4918    11882.312 
   97200    304.58485    215.20394   -3173.4646   -2720.4177    1914.8621    11882.577 
   97250    301.69373    215.17509   -3172.5031   -2723.7566     1904.727    11883.556 
   97300     305.4574    215.26515   -3175.5049   -2721.1602    1729.8638    11885.288 
   97350    319.37572    215.69736    -3189.912   -2714.8648    1330.8006    11887.654 
   97400    301.37823    215.06279   -3168.7598   -2720.4825     1904.508      11890.5 
   97450    301.11271    215.04893   -3168.2977   -2720.4153    1866.3199     11894.05 
   97500     311.0315    215.37337   -3179.1122   -2716.4764    1480.0057    11898.333 
   97550    329.65822    216.05393   -3201.7977   -2711.4561    860.08193    11903.128 
   97600    312.36345    215.51136   -3183.7121   -2719.0952    1368.1401    11908.175 
   97650    299.85459    215.09185   -3169.7283   -2723.7174    1712.5086    11913.686 
   97700    303.58452    215.13445   -3171.1484   -2719.5894    1463.2466    11919.841 
   97750    308.31413    215.28938   -3176.3128   -2717.7189     1147.998    11926.525 
   97800    300.16641    215.12983   -3170.9942   -2724.5194    1225.0827    11933.586 
   97850    292.49751    214.86974   -3162.3248   -2727.2569    1318.1432     11941.07 
   97900    301.64319    215.16488   -3172.1627   -2723.4913    963.34928    11949.003 
   97950    307.80758    215.38018   -3179.3394   -2721.4989     667.2713    11957.229 
   98000     306.3346    215.42357   -3180.7855    -2725.136    586.61791    11965.588 
   98050    290.12823    214.91451    -3163.817   -2732.2733    913.78708    11974.061 
   98100     305.6649    215.43063   -3181.0211   -2726.3677    362.31817    11982.749 
   98150    312.12795    215.60552   -3186.8508   -2722.5842     93.06123    11991.422 
   98200    301.19988    215.34977   -3178.3258   -2730.3138    207.87875    11999.939 
   98250    293.08439    215.24208   -3174.7359   -2738.7951    274.42076    12008.327 
   98300    279.42858     214.8848   -3162.8266   -2747.1977    498.91522    12016.657 
   98350    297.74115    215.49712   -3183.2373   -2740.3699   -145.42563        12025 
   98400    292.36529    215.31905   -3177.3017   -2742.4305   -140.19248    12033.084 
   98450    286.44844    215.19164   -3173.0548   -2746.9845    -231.2714    12040.876 
   98500    290.70637    215.41605   -3180.5351   -2748.1314   -620.03859    12048.311 
   98550    274.82134    214.95484   -3165.1613   -2756.3854   -317.39864    12055.228 
   98600    282.64528    215.23008   -3174.3361   -2753.9227     -648.966    12061.727 
   98650    272.29574    214.91832   -3163.9441   -2758.9248   -475.03262    12067.703 
   98700    282.03626     215.3021   -3176.7368   -2757.2292   -824.25706    12073.162 
   98750    277.72087    215.25455   -3175.1518   -2762.0631   -828.17327    12077.991 
   98800    278.18063     215.2753   -3175.8432   -2762.0706   -930.25696    12082.151 
   98850    270.39152    214.98755   -3166.2518   -2764.0649   -751.06675    12085.612 
   98900    274.51726    215.11896    -3170.632   -2762.3084   -917.89144    12088.428 
   98950    275.33238    215.23109   -3174.3696   -2764.8335   -985.96536    12090.532 
   99000    265.20609    214.90571   -3163.5236   -2769.0497   -661.77146    12091.905 
   99050    280.58981    220.42747   -3180.9155   -2763.5595   -1201.1027    12092.655 
   99100    279.78672    220.39674   -3179.8914   -2763.7299   -1238.6576    12092.567 
   99150    264.18207    219.95715   -3165.2384   -2772.2876   -782.48447    12091.616 
   99200    276.58363    220.33941   -3177.9802    -2766.583   -1091.8893    12089.984 
   99250    271.68845    220.14397   -3171.4657   -2767.3497    -915.8612    12087.578 
   99300    264.69836    219.96335   -3165.4449   -2771.7262   -576.94536    12084.449 
   99350    259.70967     219.8195   -3160.6501   -2774.3516   -308.57531    12080.804 
   99400    279.62661    220.49349   -3183.1164    -2767.193   -905.49125    12076.731 
   99450    289.08854    220.75574    -3191.858   -2761.8607    -1179.611    12071.959 
   99500    288.43857    220.67693    -3189.231   -2760.2005   -1046.7198    12066.327 
   99550      270.267    220.10109   -3170.0363   -2768.0346   -409.16482    12059.919 
   99600    278.98168    220.29219   -3176.4062   -2761.4421   -548.21624    12053.003 
   99650    288.14174    220.53001   -3184.3338   -2755.7448   -657.60184    12045.559 
   99700    283.74616    220.39669   -3179.8895   -2757.8386   -373.97998    12037.534 
   99750    275.80968    220.08978   -3169.6592   -2759.4132   -48.862217    12029.074 
   99800    285.17446    220.40574   -3180.1914    -2756.016   -245.49853    12020.306 
   99850    280.88051    220.23666   -3174.5554   -2756.7669    30.106481    12011.174 
   99900    269.22807    219.84054   -3161.3512   -2760.8948    473.45969    12001.817 
   99950    286.77481    220.32965   -3177.6549   -2751.0991    82.507063    11992.425 
  100000    289.18432    220.38829   -3179.6097   -2749.4699    184.17125    11982.849 
Loop time of 26.7199 on 1 procs for 100000 steps with 500 atoms

Performance: 323.354 ns/day, 0.074 hours/ns, 3742.523 timesteps/s
99.8% CPU use with 1 MPI tasks x 1 OpenMP threads

MPI task timing breakdown:
Section |  min time  |  avg time  |  max time  |%varavg| %total
---------------------------------------------------------------
Pair    | 21.994     | 21.994     | 21.994     |   0.0 | 82.31
Bond    | 0.006777   | 0.006777   | 0.006777   |   0.0 |  0.03
Neigh   | 0.51492    | 0.51492    | 0.51492    |   0.0 |  1.93
Comm    | 0.76986    | 0.76986    | 0.76986    |   0.0 |  2.88
Output  | 0.018419   | 0.018419   | 0.018419   |   0.0 |  0.07
Modify  | 2.7428     | 2.7428     | 2.7428     |   0.0 | 10.26
Other   |            | 0.673      |            |       |  2.52

Nlocal:    500 ave 500 max 500 min
Histogram: 1 0 0 0 0 0 0 0 0 0
Nghost:    1594 ave 1594 max 1594 min
Histogram: 1 0 0 0 0 0 0 0 0 0
Neighs:    14583 ave 14583 max 14583 min
Histogram: 1 0 0 0 0 0 0 0 0 0

Total # of neighbors = 14583
Ave neighs/atom = 29.166
Ave special neighs/atom = 0
Neighbor list builds = 623
Dangerous builds = 0

write_data      ${walker}/final_restart_file
write_data      9/final_restart_file

quit
