LAMMPS (19 May 2017)
Processor partition = 9
  using 1 OpenMP thread(s) per MPI task
# gREM variables
variable        lambda world 1000 1005 1010 1015 1020 1025 1030 1035 1040 1045 1050 1055 1060 1065 1070 1075
variable        walker world 0 1 2 3 4 5 6 7 8 9 10 11 12 13 14 15
variable        replica world 0 1 2 3 4 5 6 7 8 9 10 11 12 13 14 15

variable        T0 equal 300.0
variable        press equal 0.0

units           real
atom_style      full
pair_style      lj/cut 5.0

# LJ particles
read_data       init_restart_file
  orthogonal box = (1.27034 1.27034 1.27034) to (23.7297 23.7297 23.7297)
  1 by 1 by 1 MPI processor grid
  reading atoms ...
  500 atoms
  reading velocities ...
  500 velocities
  0 = max # of 1-2 neighbors
  0 = max # of 1-3 neighbors
  0 = max # of 1-4 neighbors
  1 = max # of special neighbors

#dump            dump all xyz 1000 ${rep}/dump.xyz

fix             fxnpt all npt temp ${T0} ${T0} 1000.0 iso ${press} ${press} 10000.0
fix             fxnpt all npt temp 300 ${T0} 1000.0 iso ${press} ${press} 10000.0
fix             fxnpt all npt temp 300 300 1000.0 iso ${press} ${press} 10000.0
fix             fxnpt all npt temp 300 300 1000.0 iso 0 ${press} 10000.0
fix             fxnpt all npt temp 300 300 1000.0 iso 0 0 10000.0
fix             fxgREM all grem ${lambda} -.03 -30000 fxnpt
fix             fxgREM all grem 1045 -.03 -30000 fxnpt
thermo_modify   press fxgREM_press

thermo          50
thermo_style    custom step temp f_fxgREM pe etotal press vol
WARNING: New thermo_style command, previous thermo_modify settings will be lost (../output.cpp:705)
timestep        1.0

temper/grem     100000 1000 ${lambda} fxgREM fxnpt 10294 98392 #${walker}
temper/grem     100000 1000 1045 fxgREM fxnpt 10294 98392 
Neighbor list info ...
  update every 1 steps, delay 10 steps, check yes
  max neighbors/atom: 2000, page size: 100000
  master list distance cutoff = 7
  ghost atom cutoff = 7
  binsize = 3.5, bins = 7 7 7
  1 neighbor lists, perpetual/occasional/extra = 1 0 0
  (1) pair lj/cut, perpetual
      attributes: half, newton on
      pair build: half/bin/newton
      stencil: half/bin/3d/newton
      bin: standard
Per MPI rank memory allocation (min/avg/max) = 5.728 | 5.728 | 5.728 Mbytes
Step Temp f_fxgREM PotEng TotEng Press Volume 
       0    299.42262      247.507      -3416.9   -2971.5315    1317.0315    11328.967 
      50    223.25798    244.86351   -3328.7837   -2996.7044    3925.7153    11329.324 
     100    191.54104    243.84393   -3294.7977   -3009.8949    5015.2513    11331.318 
     150    202.90619    244.22668    -3307.556   -3005.7484    4543.3651    11335.527 
     200    212.68888    244.53847    -3317.949   -3001.5904    4202.1639    11341.776 
     250    219.79753    244.71881   -3323.9603   -2997.0281    3910.5175    11349.902 
     300    219.04813    244.62866   -3320.9554   -2995.1379    3863.2899    11359.781 
     350    212.67618     244.3529   -3311.7635   -2995.4238    3934.9346    11371.395 
     400    221.04995    244.54946   -3318.3152   -2989.5202    3483.8892     11384.75 
     450    220.44196    244.48673   -3316.2244   -2988.3337    3345.8038    11399.673 
     500    216.05111    244.24042    -3308.014   -2986.6543    3320.9089     11416.09 
     550    217.15723    244.20271   -3306.7569    -2983.752    3118.7922    11433.987 
     600    225.51461    244.49699   -3316.5662   -2981.1304    2614.4311    11453.245 
     650     223.5006    244.32498   -3310.8327   -2978.3925    2422.6141    11473.668 
     700    214.56581    243.85235   -3295.0782   -2975.9279    2514.4756    11495.146 
     750    217.49868    243.97667   -3299.2223   -2975.7095    2135.1529    11517.676 
     800    215.95444    243.78178   -3292.7262   -2971.5103    1910.3914    11541.114 
     850    216.06942    243.70765   -3290.2549    -2968.868    1606.4583      11565.3 
     900    211.11432    243.42862    -3280.954   -2966.9375    1536.8361    11590.098 
     950    220.59384    243.69151   -3289.7171   -2961.6005     977.7151    11615.426 
    1000    218.38111    243.53994   -3284.6646   -2959.8392    792.45333    11641.037 
    1050    222.68367    238.57208   -3285.7361    -2954.511    427.26388    11666.773 
    1100    217.31372    238.39134   -3279.7115   -2956.4738    288.85056    11692.456 
    1150    212.59141    238.09197   -3269.7323   -2953.5187    246.21913    11717.983 
    1200    210.13953    237.86257   -3262.0856   -2949.5189    127.98727    11743.323 
    1250     217.0884    238.02155   -3267.3849   -2944.4823   -317.32194    11768.373 
    1300    225.07699    238.19669   -3273.2229   -2938.4379   -731.20853    11792.915 
    1350    220.40147    237.91825   -3263.9417   -2936.1112   -799.72281    11816.735 
    1400    222.38511    237.90427   -3263.4756   -2932.6946   -1127.7409    11839.755 
    1450     222.5638    237.76487   -3258.8289   -2927.7822   -1245.6417     11861.82 
    1500     216.5351    237.39107    -3246.369   -2924.2894   -1156.6906    11882.862 
    1550    213.39598    237.14632   -3238.2107   -2920.8003   -1232.3151    11902.911 
    1600    205.08867    236.82184   -3227.3947   -2922.3409   -1089.0228    11921.951 
    1650    209.34021    236.75344   -3225.1147    -2913.737   -1238.2267    11940.035 
    1700    221.12368    237.07434   -3235.8112   -2906.9065   -1753.0441    11957.077 
    1750    214.82968    236.69536   -3223.1788   -2903.6359   -1667.6197    11972.865 
    1800    224.51716    236.96103   -3232.0344   -2898.0821   -2029.6808    11987.384 
    1850    230.03024    237.04974   -3234.9913   -2892.8387   -2195.7793    12000.505 
    1900    221.73124    236.66048    -3222.016   -2892.2075   -1942.8372    12012.156 
    1950    223.11549    236.63927   -3221.3089   -2889.4415   -2019.6171    12022.447 
    2000    221.74924     236.4505   -3215.0166   -2885.1815   -1975.9395    12031.385 
    2050    222.13804    241.38691    -3212.897   -2882.4835   -1973.9404    12039.009 
    2100    224.29928    241.35893   -3211.9642    -2878.336   -2015.1223    12045.346 
    2150    230.81404     241.4508   -3215.0268   -2871.7084   -2162.5214    12050.385 
    2200    223.52421     241.0198   -3200.6602   -2868.1848   -1811.0084    12054.088 
    2250     211.1714     240.5507   -3185.0233   -2870.9219   -1360.4913    12056.655 
    2300    228.66806     240.9808   -3199.3601   -2859.2337   -1754.3745    12058.296 
    2350    230.92382    241.01528   -3200.5092   -2857.0275   -1789.6394    12058.878 
    2400    227.81028    240.76836   -3192.2785    -2853.428    -1580.077     12058.39 
    2450    234.96504    240.95241   -3198.4137   -2848.9211   -1701.5355     12056.92 
    2500    228.52534    240.58726   -3186.2418   -2846.3277   -1325.7412    12054.471 
    2550    228.30355    240.50595   -3183.5317   -2843.9475   -1093.2223    12051.211 
    2600    237.17597    240.73306   -3191.1019   -2838.3206   -1214.8881    12047.277 
    2650    238.99364    240.66155   -3188.7184   -2833.2334   -1076.0833     12042.64 
    2700    240.19935    240.64816    -3188.272   -2830.9937   -966.52479    12037.354 
    2750    238.89414    240.55363   -3185.1209    -2829.784   -903.64063    12031.504 
    2800    246.84045    240.66723   -3188.9075   -2821.7511   -1004.3984    12025.119 
    2850    245.15472     240.4076   -3180.2534   -2815.6043   -676.37883    12018.183 
    2900    245.29754    240.43214   -3181.0712   -2816.2097   -527.01499     12010.85 
    2950    258.45798     240.8524     -3195.08   -2810.6434   -836.40826    12003.182 
    3000    252.11798    240.56769   -3185.5898   -2810.5834   -511.72675    11995.083 
    3050    262.67802    235.84743   -3194.9145   -2804.2008   -551.87973    11986.663 
    3100    260.83232    235.65882   -3188.6274   -2800.6591   -160.46951    11977.941 
    3150    262.02501     235.6105   -3187.0168   -2797.2744    85.975114    11969.095 
    3200    260.54707    235.56627   -3185.5423   -2797.9983    277.67204    11960.273 
    3250    262.79905    235.56313   -3185.4376   -2794.5439     297.5763    11951.556 
    3300    263.58277    235.45667    -3181.889   -2789.8296    427.72069    11942.978 
    3350    280.39553    235.87851   -3195.9503   -2778.8832    198.22774    11934.559 
    3400     273.5439     235.5022   -3183.4066   -2776.5308     704.9605    11926.242 
    3450    275.43363    235.48229   -3182.7431   -2773.0565    818.25222    11918.213 
    3500    292.20344    235.99858   -3199.9527   -2765.3222    453.22003    11910.521 
    3550    274.00464    235.36664    -3178.888   -2771.3269    1214.4121     11903.06 
    3600    275.38591    235.35356   -3178.4519   -2768.8362    1428.5177    11896.114 
    3650    278.34423    235.40736   -3180.2453   -2766.2294     1500.076    11889.838 
    3700    279.28041    235.37414    -3179.138   -2763.7296    1585.8583    11884.258 
    3750    285.07182    235.46397   -3182.1324   -2758.1097     1519.987    11879.379 
    3800     279.4805    235.17712   -3172.5707   -2756.8646    1886.7623    11875.211 
    3850    286.10397     235.2945   -3176.4834   -2750.9254    1891.4223    11871.868 
    3900    295.05496    235.56873   -3185.6244   -2746.7525    1656.8051    11869.347 
    3950    305.68217    235.92241   -3197.4136   -2742.7346    1388.8654     11867.53 
    4000    293.79413    235.30553    -3176.851   -2739.8545    1927.4431    11866.329 
    4050    301.10395    235.49896   -3183.2988   -2735.4295    1862.7065    11865.898 
    4100    286.08381    234.91971   -3163.9905   -2738.4625    2348.9857    11866.293 
    4150    313.68185    235.72897   -3190.9655   -2724.3876    1547.7965    11867.618 
    4200     289.2423     234.7436   -3158.1199   -2727.8939    2490.0123    11869.633 
    4250    298.39626    234.99918   -3166.6392   -2722.7974    2350.5741    11872.648 
    4300    301.75053    235.12494   -3170.8312   -2722.0002    2202.8286     11876.65 
    4350    295.90882    234.77293   -3159.0978   -2718.9558    2379.9844    11881.572 
    4400    299.82008    234.82553    -3160.851   -2714.8913    2172.3235    11887.465 
    4450    301.83788    234.81342   -3160.4473   -2711.4863    2117.9094    11894.215 
    4500    300.99308    234.77154   -3159.0515   -2711.3471    2131.3129    11901.803 
    4550    300.75899    234.65317   -3155.1056   -2707.7494    2089.9359    11910.222 
    4600     307.7177    234.78739   -3159.5797    -2701.873    1886.3371    11919.409 
    4650    299.02295    234.47735   -3149.2448   -2704.4709    2113.6176    11929.314 
    4700    305.59227    234.67053   -3155.6842   -2701.1389    1797.6545    11940.002 
    4750    302.24843    234.53316   -3151.1052   -2701.5336    1781.4971    11951.339 
    4800     300.8811    234.36597   -3145.5323   -2697.9945     1798.501    11963.294 
    4850    301.41365    234.41511   -3147.1704   -2698.8404    1652.5582    11975.872 
    4900    295.59335    234.10242   -3136.7473   -2697.0746    1774.2968    11989.005 
    4950    304.90645    234.36043   -3145.3477   -2691.8225    1341.2273    12002.699 
    5000    316.32401    234.72002   -3157.3339   -2686.8259    767.80855    12016.749 
    5050    310.42315    234.43741   -3147.9138   -2686.1829     858.3452    12030.896 
    5100    297.21281    233.90231   -3130.0769   -2687.9953    1191.2955    12045.173 
    5150     303.5876    234.03124   -3134.3747   -2682.8111    899.36857    12059.719 
    5200    306.05188    234.12313   -3137.4378   -2682.2088    701.53758    12074.401 
    5250    298.29322    233.75198    -3125.066   -2681.3774     918.1738    12089.112 
    5300    295.17632    233.55673   -3118.5576   -2679.5052    941.52527    12103.961 
    5350    295.14442    233.56209   -3118.7363   -2679.7313    721.85648     12118.96 
    5400    297.13985    233.61124   -3120.3745   -2678.4015    403.43133     12133.99 
    5450    304.48357    233.77262    -3125.754   -2672.8578    48.924022    12148.874 
    5500    309.54978    233.82935   -3127.6449   -2667.2131   -194.36142    12163.434 
    5550    306.28504      233.609   -3120.3001   -2664.7243   -106.13551    12177.536 
    5600    299.47854    233.37298   -3112.4326    -2666.981    21.613936     12191.23 
    5650    307.38343    233.59136   -3119.7119   -2662.5024    -275.9103    12204.568 
    5700    289.89323    232.94217   -3098.0722    -2666.878    229.52021    12217.458 
    5750    287.84329    232.76503   -3092.1676   -2664.0225     221.8158    12230.109 
    5800    309.83224    233.54918    -3118.306   -2657.4541   -620.15792     12242.49 
    5850    301.77534    233.20685   -3106.8949    -2658.027   -477.73734    12254.253 
    5900    309.38465    233.43325   -3114.4416   -2654.2554   -819.83897    12265.379 
    5950    299.04587    233.00249   -3100.0831    -2655.275   -618.30577    12275.763 
    6000    287.52377    232.51537   -3083.8456   -2656.1758   -281.74277    12285.496 
    6050    295.83373    232.73721   -3091.2405   -2651.2102   -489.80037    12294.729 
    6100    296.70641    232.80704   -3093.5681   -2652.2398   -672.08159    12303.409 
    6150    306.56533    233.08266   -3102.7553   -2646.7626   -1120.1845    12311.387 
    6200    297.69336     232.7667   -3092.2235   -2649.4272   -893.69838    12318.492 
    6250    289.36235    232.38856   -3079.6186   -2649.2141   -619.73155     12324.83 
    6300    305.03536    232.90367    -3096.789    -2643.072   -1056.4862    12330.502 
    6350    293.70603    232.42852   -3080.9507   -2644.0852   -713.02155    12335.385 
    6400    300.27072     232.5899   -3086.3299      -2639.7   -844.02811    12339.569 
    6450    290.20583      232.188   -3072.9334   -2641.2742   -468.82837    12343.079 
    6500     288.1341    232.09477   -3069.8256    -2641.248   -369.57617    12346.061 
    6550    291.80537    232.14691   -3071.5636   -2637.5252   -511.97438    12348.597 
    6600    306.65633    232.59125   -3086.3751   -2630.2471   -1007.2228    12350.613 
    6650    314.65598    232.81003   -3093.6676   -2625.6407   -1194.8781    12351.855 
    6700    294.79918    232.07766   -3069.2552   -2630.7637   -499.48875    12352.257 
    6750    298.14417    232.18455   -3072.8185   -2629.3516   -536.49914    12352.128 
    6800     305.8205    232.20711   -3073.5702   -2618.6854   -628.41908    12351.499 
    6850    311.04049     232.4144   -3080.4799   -2617.8308   -808.61686    12350.299 
    6900    310.09395    232.35137   -3078.3788   -2617.1376   -810.20931    12348.456 
    6950    301.53298     232.0558   -3068.5267   -2620.0193   -457.57719    12345.996 
    7000    308.59814    232.37189   -3079.0631   -2620.0467   -632.10473    12343.062 
    7050    298.26555    236.91422   -3063.8072   -2620.1599   -264.54573    12339.637 
    7100    298.00652    236.91149   -3063.7164   -2620.4543   -113.75975    12335.891 
    7150    308.53463    237.24459   -3074.8198   -2615.8979   -314.06459    12331.915 
    7200    306.21416    237.19287   -3073.0958   -2617.6254    -247.6839    12327.619 
    7250    308.84228    237.30179   -3076.7265    -2617.347   -322.29508    12323.006 
    7300    292.56106     236.6586   -3055.2867   -2620.1243    301.34291    12318.102 
    7350    296.81615    236.81749   -3060.5829   -2619.0914    320.19071    12313.178 
    7400    298.87667    236.87024   -3062.3414    -2617.785    399.75294    12308.292 
    7450    288.07931    236.45031   -3048.3438   -2619.8477    795.12283    12303.501 
    7500    303.51492    236.95621   -3065.2071   -2613.7517    245.22202    12298.954 
    7550    319.36931    237.42666   -3080.8887   -2605.8511   -354.68242    12294.386 
    7600    323.28184     237.4514   -3081.7133    -2600.856   -318.04963    12289.483 
    7650    316.86358     237.2535   -3075.1167   -2603.8061    57.167898    12284.258 
    7700    319.37848    237.29081   -3076.3602   -2601.3089    72.819794    12278.895 
    7750    320.35185    237.34465    -3078.155   -2601.6559     138.2743    12273.407 
    7800    319.84164    237.30202   -3076.7338   -2600.9936    323.37263    12267.845 
    7850    324.74552    237.43439   -3081.1464    -2598.112    308.90661    12262.292 
    7900    325.21344    237.51723   -3083.9078   -2600.1774    352.74519    12256.747 
    7950    305.72247    236.77753    -3059.251    -2604.512    968.77797    12251.273 
    8000    308.77472    236.88896   -3062.9654   -2603.6864    886.40051    12246.118 
    8050    326.13684    232.49546    -3083.182   -2598.0781    398.61818    12241.261 
    8100    317.82208    232.21508   -3073.8361   -2601.0998    717.72522    12236.493 
    8150    318.68131    232.23138   -3074.3792   -2600.3649    764.42115    12231.911 
    8200    329.51855    232.66743   -3088.9142   -2598.7803    418.11623     12227.55 
    8250    316.51476    232.29654   -3076.5513   -2605.7596    756.67658    12223.265 
    8300    329.28038     232.7372   -3091.2399   -2601.4603    423.63432    12219.148 
    8350     324.6383    232.62135   -3087.3782   -2604.5034    634.25205    12215.115 
    8400    306.12862    231.97705   -3065.9017   -2610.5586    1225.9803    12211.266 
    8450    315.26946    232.36425   -3078.8083   -2609.8688    879.20209    12207.858 
    8500    317.61607    232.47388   -3082.4627   -2610.0329    771.91573     12204.75 
    8550     316.6262    232.43544   -3081.1813   -2610.2238    784.79897    12201.865 
    8600    320.23248    232.67372   -3089.1242   -2612.8026     647.1364    12199.208 
    8650    326.33957    232.91324   -3097.1079   -2611.7025    481.87586    12196.688 
    8700     325.2587    232.89243   -3096.4144   -2612.6168    444.98421    12194.235 
    8750    329.28204    233.14867   -3104.9556   -2615.1735    286.96721    12191.805 
    8800    304.51881    232.36626   -3078.8754   -2625.9267    1046.4908    12189.385 
    8850    310.89358    232.75138   -3091.7128   -2629.2821    811.89219    12187.276 
    8900     309.9813    232.70082   -3090.0272   -2628.9535    741.80506    12185.435 
    8950    313.61374    232.89668   -3096.5561   -2630.0795    571.69694     12183.76 
    9000    314.71063    232.89504   -3096.5014   -2628.3932    521.73679    12182.206 
    9050    316.74636    228.03626   -3101.2087   -2630.0725    393.53059    12180.733 
    9100     313.9543    227.97607   -3099.2025   -2632.2192    471.35245    12179.251 
    9150    330.06886    228.67137   -3122.3789   -2631.4265   -58.354039    12177.745 
    9200    305.25341      227.939   -3097.9666   -2643.9253    540.82103    12176.074 
    9250    319.70443    228.38447   -3112.8156   -2637.2795    187.17997    12174.417 
    9300    309.11661    228.08146   -3102.7153   -2642.9278    603.25897    12172.698 
    9350      305.895    228.07642   -3102.5472   -2647.5516    642.34084    12171.069 
    9400     319.9365     228.5928   -3119.7601   -2643.8788   -14.706878    12169.537 
    9450    312.56867    228.36275   -3112.0917   -2647.1695    75.942539    12167.835 
    9500    326.14762     228.8795   -3129.3167   -2644.1969   -197.67095    12165.917 
    9550    302.00799    228.16458    -3105.486    -2656.272    607.93384    12163.746 
    9600    308.56508    228.45018   -3115.0059   -2656.0387     393.2019     12161.62 
    9650    303.56606    228.34226   -3111.4088   -2659.8773    393.90217    12159.516 
    9700    296.42494     228.2336   -3107.7867   -2666.8771    506.24831    12157.424 
    9750    311.86224    228.77642   -3125.8806   -2662.0092    40.969924    12155.361 
    9800    319.41098    229.15343   -3138.4477   -2663.3481   -289.31574    12153.124 
    9850    309.55375    228.91145   -3130.3816   -2669.9438   -108.91375     12150.54 
    9900    298.39359     228.6219     -3120.73   -2676.8922    235.38762    12147.693 
    9950    282.62365    228.12793   -3104.2642    -2683.883    694.69801     12144.79 
   10000    297.02913     228.6355   -3121.1832   -2679.3749     278.6682    12141.999 
   10050    297.75363    233.75746   -3125.2488   -2682.3628     191.8259    12139.212 
   10100     306.2295    234.09447   -3136.4822   -2680.9891    -74.53909    12136.329 
   10150     302.0103    233.99698   -3133.2326   -2684.0151    44.296254    12133.241 
   10200    288.75988    233.54748   -3118.2492   -2688.7408    431.41612    12130.006 
   10250     294.7272    233.84499   -3128.1662   -2689.7818    228.12251    12126.787 
   10300    303.57551    234.12515    -3137.505   -2685.9594   -64.006472    12123.519 
   10350    302.55019     234.2604   -3142.0133   -2691.9928   -92.065522    12120.021 
   10400    294.31345    234.01977   -3133.9922   -2696.2232    170.97847    12116.296 
   10450    292.30345    233.88288   -3129.4293   -2694.6501    284.94931    12112.495 
   10500    290.07489    233.90553   -3130.1843   -2698.7199    290.42658    12108.671 
   10550    304.55495    234.39581   -3146.5269   -2693.5245   -191.21119    12104.782 
   10600    289.60451    234.05439   -3135.1462   -2704.3815    186.59675    12100.646 
   10650    278.03345    233.71499   -3123.8331   -2710.2794    641.08003    12096.441 
   10700    289.64174    234.06858   -3135.6195   -2704.7993    453.07416    12092.374 
   10750    292.56579    234.13828   -3137.9426   -2702.7731    428.38398    12088.389 
   10800    288.15249    234.03789   -3134.5963   -2705.9913    556.03726    12084.463 
   10850    275.42529    233.61266   -3120.4221   -2710.7479    928.83609    12080.687 
   10900    279.60555    233.83471   -3127.8236   -2711.9316    714.42063    12077.215 
   10950    292.57324    234.30129   -3143.3764   -2708.1959    311.20888    12073.955 
   11000    300.86974    234.58253   -3152.7511   -2705.2301     122.9251    12070.689 
   11050    298.29151     229.5489   -3151.6302   -2707.9441     120.7102    12067.311 
   11100    310.71261    229.98963   -3166.3209   -2704.1595   -223.68305    12063.777 
   11150    286.16477    229.21509   -3140.5031   -2714.8546    586.55478    12059.986 
   11200    290.70552    229.37522   -3145.8406   -2713.4382    466.72236    12056.254 
   11250    298.68604    229.58542   -3152.8474   -2708.5745    241.74993    12052.586 
   11300    301.07032    229.66019   -3155.3395   -2707.5202    201.76453    12048.856 
   11350    298.26292     229.6957   -3156.5232   -2712.8797    335.79594    12045.048 
   11400    284.29002    229.15905   -3138.6351   -2715.7753    880.15616    12041.258 
   11450     288.0428    229.32302   -3144.1007   -2715.6588    782.27216    12037.711 
   11500    303.37982    229.83083   -3161.0275    -2709.773    296.81639    12034.372 
   11550    287.30211    229.31342   -3143.7806   -2716.4405     766.6539    12031.054 
   11600    297.03041    229.73054   -3157.6846   -2715.8744    497.03238    12027.893 
   11650    304.52341    229.96147   -3165.3825    -2712.427    325.51271     12024.81 
   11700    292.27791    229.51788   -3150.5962   -2715.8549    736.51485    12021.729 
   11750    299.72321    229.80908   -3160.3026   -2714.4871    516.46371    12018.799 
   11800    300.83059    229.88807   -3162.9355   -2715.4728    481.70445    12015.959 
   11850    296.79909    229.75967   -3158.6556   -2717.1894    579.49421    12013.183 
   11900    299.81586     229.8244   -3160.8133   -2714.8599    451.35958    12010.519 
   11950    297.92655    229.77287   -3159.0955   -2715.9524    570.31646    12007.909 
   12000    289.95336    229.59927   -3153.3091   -2722.0254    895.52203    12005.421 
   12050    301.71784     234.8987     -3163.29   -2714.5076    640.69789    12003.189 
   12100    289.49376    234.53037   -3151.0122   -2720.4122     1025.251    12001.141 
   12150    297.63578    234.84352   -3161.4507     -2718.74      771.003    11999.417 
   12200    294.23738    234.78516   -3159.5055   -2721.8497    866.44621    11997.946 
   12250    273.85683    233.94816   -3131.6053    -2724.264    1587.1316    11996.763 
   12300    295.85627    234.76652   -3158.8841   -2718.8203     904.2589    11996.158 
   12350     294.8898    234.74748   -3158.2492   -2719.6229    892.87814    11995.902 
   12400    291.50572    234.57254   -3152.4179   -2718.8252    1031.1195     11995.93 
   12450    293.11436    234.64534   -3154.8445   -2718.8591     1027.656    11996.305 
   12500    288.85806    234.56372   -3152.1239   -2722.4694    1143.5247    11997.052 
   12550    299.99357     234.8598   -3161.9934   -2715.7757    794.30685    11998.187 
   12600     298.1941     234.7472   -3158.2402    -2714.699    838.39098    11999.549 
   12650     290.8571    234.53212   -3151.0708   -2718.4429     1007.886    12001.175 
   12700    301.41763    234.87315   -3162.4383   -2714.1024    665.96645    12003.097 
   12750      288.718    234.44166   -3148.0553   -2718.6092    1038.7637    12005.221 
   12800    292.17722    234.51746   -3150.5821   -2715.9906    958.69013    12007.681 
   12850    277.99795    234.07954   -3135.9847   -2722.4838    1302.2481    12010.496 
   12900    293.66183    234.67107   -3155.7023   -2718.9026    798.57347    12013.758 
   12950    297.75793    234.73442   -3157.8141   -2714.9217    692.65103    12017.285 
   13000    296.28633    234.67378   -3155.7926   -2715.0892    591.34477    12020.962 
   13050    295.99604    229.59904   -3153.3014   -2713.0297    457.62013    12024.753 
   13100    305.04639    229.88915   -3162.9717   -2709.2383    181.17209    12028.553 
   13150    289.39126    229.41134   -3147.0446    -2716.597    652.56293    12032.267 
   13200    297.62469    229.73656   -3157.8855   -2715.1913    361.20333    12036.068 
   13250    286.53644    229.31793   -3143.9309   -2717.7297    682.53211    12039.888 
   13300    295.78984     229.5453   -3151.5101   -2711.5452    436.22143    12043.824 
   13350    305.45255    229.79988    -3159.996   -2705.6584    165.22295    12047.793 
   13400    298.35354    229.51767   -3150.5891   -2706.8108    428.41354    12051.646 
   13450    291.12608    229.34735   -3144.9117   -2711.8837    634.55963    12055.504 
   13500    289.17083    229.28836   -3142.9452   -2712.8255    666.19361    12059.498 
   13550    294.45322    229.38758   -3146.2528   -2708.2759    464.49866    12063.614 
   13600     293.8727    229.31287   -3143.7625   -2706.6491    412.72229    12067.774 
   13650    299.56145    229.50553   -3150.1842   -2704.6093    203.44824    12071.928 
   13700    298.69637     229.3912   -3146.3733   -2702.0851    243.08775    12075.985 
   13750     298.8184    229.33848   -3144.6161   -2700.1463    209.63954    12079.951 
   13800    306.99512     229.5831   -3152.7701   -2696.1381   -49.767842      12083.8 
   13850    288.99881    228.90092   -3130.0308    -2700.167    453.49331    12087.459 
   13900    291.47834     228.9799   -3132.6634   -2699.1115    378.44842    12091.106 
   13950    303.30988    229.36765   -3145.5882   -2694.4377    76.698157    12094.724 
   14000    291.87752    228.92685    -3130.895   -2696.7493    436.04431    12098.216 
   14050    298.94812    234.17219   -3139.0731   -2694.4104    308.49061    12101.676 
   14100     280.6884    233.50941   -3116.9803   -2699.4776    933.95582    12105.154 
   14150    284.29349    233.49498   -3116.4993   -2693.6343    782.64959    12108.897 
   14200    300.51909    234.04587   -3134.8625   -2687.8631    218.20829    12112.843 
   14250     290.5168    233.66688   -3122.2294   -2690.1076    556.62288    12116.741 
   14300    286.45865    233.43003   -3114.3344   -2688.2488    714.18613    12120.718 
   14350    305.45953    234.13294   -3137.7648   -2683.4169   -1.0712328    12124.845 
   14400    309.32593     234.2331   -3141.1033   -2681.0044   -269.20901    12128.797 
   14450     305.4779     234.0708   -3135.6934   -2681.3182   -139.50535    12132.416 
   14500    283.93554     233.2612   -3108.7066    -2686.374      643.292    12135.789 
   14550    293.04021    233.53708   -3117.9026   -2682.0275    427.21054     12139.24 
   14600    300.88342      233.778   -3125.9332   -2678.3919    185.40318    12142.733 
   14650    304.88657    233.84999    -3128.333   -2674.8373    183.64874    12146.127 
   14700    288.79816    233.33663   -3111.2209   -2681.6555    684.81963    12149.446 
   14750    293.26773    233.37629   -3112.5429   -2676.3294    540.39204    12152.892 
   14800     293.5914    233.36112   -3112.0373   -2675.3423    450.38152    12156.441 
   14850    298.78674    233.46326   -3115.4422   -2671.0195    259.52674    12160.028 
   14900    308.02211    233.77157    -3125.719   -2667.5595   -117.51121     12163.54 
   14950    313.05677    233.85211   -3128.4037   -2662.7555   -274.32502    12166.781 
   15000    307.15484    233.58709   -3119.5697   -2662.7001   -20.105894    12169.691 
   15050    300.05169     233.3899   -3112.9966   -2666.6924    252.96167    12172.382 
   15100    288.42726    233.00258   -3100.0859   -2671.0722    660.67598    12175.013 
   15150    292.03923    233.13969   -3104.6564   -2670.2702    453.69313    12177.775 
   15200    307.47327    233.57377   -3119.1256   -2661.7824   -109.75467    12180.564 
   15250    299.78574    233.21816    -3107.272   -2661.3634    105.85061    12183.136 
   15300    306.01521    233.34251   -3111.4172   -2656.2427    13.285169    12185.524 
   15350     297.3438    233.07358   -3102.4527   -2660.1763    273.60564    12187.751 
   15400    322.90758    233.90983   -3130.3278   -2650.0273   -493.59076    12189.848 
   15450    299.85404    233.02911   -3100.9703   -2654.9602    233.98257    12191.544 
   15500    297.36874    232.93729   -3097.9098   -2655.5963    380.68193    12193.112 
   15550     311.2223    233.43073   -3114.3578   -2651.4382   -98.709049    12194.663 
   15600    319.68662    233.71087   -3123.6956    -2648.186   -364.87542     12195.95 
   15650    304.83932    233.21702   -3107.2338   -2653.8085    111.78696    12196.871 
   15700    295.55909    232.84018   -3094.6728    -2655.051    437.26599     12197.64 
   15750    300.32207    232.94987    -3098.329   -2651.6227    281.54343     12198.41 
   15800    299.68507    232.95521    -3098.507   -2652.7482    277.58061    12199.144 
   15850     298.7737    232.87586   -3095.8621   -2651.4589    296.82474    12199.833 
   15900    304.77856    233.07551   -3102.5171   -2649.1821    161.36134    12200.469 
   15950    310.26459    233.12766   -3104.2555   -2642.7604     95.16044    12200.986 
   16000    311.87785     233.1773   -3105.9099   -2642.0152    54.391004    12201.323 
   16050    308.35649    228.17627   -3105.8757   -2647.2188     77.16854     12201.49 
   16100    313.85751    228.36431   -3112.1437   -2645.3044   -115.76659    12201.471 
   16150    307.05862    228.14529   -3104.8431   -2648.1166    143.54807    12201.176 
   16200    308.31899    228.15771    -3105.257   -2646.6559    96.561187    12200.732 
   16250    305.06214     227.9508   -3098.3599   -2644.6031    173.44659    12200.141 
   16300    307.14005    228.02462   -3100.8207   -2643.9731    102.71763    12199.403 
   16350    307.54523    227.96785   -3098.9284   -2641.4782    138.88914    12198.503 
   16400    313.42776    228.17733    -3105.911    -2639.711    7.5783034    12197.439 
   16450    306.42739    227.97533   -3099.1778   -2643.3903    232.34018     12196.18 
   16500    314.19997    228.34312   -3111.4373   -2644.0887     14.84887    12194.799 
   16550    309.37742    228.21057   -3107.0189   -2646.8434    166.13265    12193.232 
   16600    304.54489    228.01636   -3100.5452   -2647.5578    382.89528    12191.524 
   16650    311.76373    228.22795   -3107.5982   -2643.8733     202.0202    12189.797 
   16700    323.83186    228.56023   -3118.6745   -2636.9991   -135.03095    12187.941 
   16750    316.80806    228.42922   -3114.3073   -2643.0793    79.193429    12185.819 
   16800    320.53633     228.5764   -3119.2134   -2642.4399    46.382075    12183.507 
   16850    306.70329     228.1578     -3105.26   -2649.0621    474.84357    12181.021 
   16900    311.12714    228.18693    -3106.231    -2643.453    432.12422    12178.541 
   16950     307.0544    228.09181   -3103.0604   -2646.3402    489.47234    12176.098 
   17000    308.73651    228.20587   -3106.8624   -2647.6402     392.6844    12173.684 
   17050    303.09728    233.05371   -3101.7903    -2650.956    555.72173    12171.284 
   17100    298.30839    232.87641   -3095.8803   -2652.1691    788.37791    12168.987 
   17150    304.89464    233.14511   -3104.8368   -2651.3292    578.33375    12166.902 
   17200    304.69052    233.13331   -3104.4438   -2651.2397     524.8401    12164.941 
   17250    306.43216    233.28507   -3109.5025   -2653.7079    423.02891    12163.059 
   17300     308.4522       233.39        -3113   -2654.2007    466.26455    12161.212 
   17350     308.0894    233.29114   -3109.7048   -2651.4452    541.35608    12159.421 
   17400    302.48806    233.13173   -3104.3908   -2654.4628    734.00145    12157.727 
   17450    300.18381    233.10999   -3103.6662   -2657.1655    794.62835    12156.223 
   17500    296.90886    233.14214   -3104.7381   -2663.1087    765.01035    12154.958 
   17550    303.98255    233.32828   -3110.9428   -2658.7918     516.7464    12153.895 
   17600    306.78983    233.48684   -3116.2281   -2659.9015    278.49241     12152.92 
   17650    297.82562    233.23803   -3107.9343   -2664.9413    470.65818    12151.911 
   17700    306.99735    233.61437    -3120.479   -2663.8437    105.23051    12150.931 
   17750    305.97642    233.66744   -3122.2479   -2667.1312    147.77212    12149.834 
   17800     300.1136    233.47715   -3115.9049   -2669.5087    366.45426    12148.607 
   17850    310.19146    233.81014   -3127.0046   -2665.6183    9.6743309    12147.345 
   17900    311.20158    233.95256   -3131.7521   -2668.8634   -104.64834    12145.908 
   17950    309.03775    233.87661   -3129.2202     -2669.55   -44.747351    12144.206 
   18000    296.08504    233.58568   -3119.5225   -2679.1184    287.26159      12142.3 
   18050    303.70975    233.83985   -3127.9951   -2676.2499    120.61812    12140.322 
   18100    282.71897    233.13703   -3104.5677   -2684.0447    899.72559    12138.265 
   18150    287.68061    233.38974   -3112.9913   -2685.0882    792.93158     12136.44 
   18200    293.04425    233.55992    -3118.664   -2682.7829    480.88218    12134.847 
   18250    300.65265    233.80687   -3126.8956   -2679.6976    159.10824    12133.322 
   18300    307.95808    234.14627   -3138.2092   -2680.1448   -143.99018    12131.696 
   18350    302.32572    234.11887   -3137.2958   -2687.6092   -47.051723    12129.804 
   18400    292.94123    233.83224   -3127.7412   -2692.0133    303.77339    12127.699 
   18450    297.77864    233.99491   -3133.1637   -2690.2405    235.64885    12125.541 
   18500    301.06922     234.0866     -3136.22   -2688.4024    78.260347    12123.322 
   18550    305.48891    234.21428   -3140.4761   -2686.0845   -125.39811    12120.932 
   18600    291.60531    233.72706   -3124.2355   -2690.4947    319.73742    12118.301 
   18650     276.3875    233.25693   -3108.5643   -2697.4588     854.8642    12115.666 
   18700    291.06053    233.81258    -3127.086   -2694.1555    380.42636     12113.25 
   18750    302.39759    234.12593   -3137.5309   -2687.7374    9.6141641    12110.868 
   18800    303.55373     234.1602   -3138.6734   -2687.1602    23.445617    12108.309 
   18850    288.12962    233.71528   -3123.8426   -2695.2716    522.22955    12105.585 
   18900    287.53716    233.72387   -3124.1291   -2696.4394    543.59106    12102.915 
   18950    295.10315    233.97488    -3132.496   -2693.5524    375.33024    12100.335 
   19000    296.26375    234.01369   -3133.7897   -2693.1199    392.60287    12097.778 
   19050    309.58009    229.46985    -3148.995   -2688.5181   -23.061036    12095.197 
   19100    302.40507    229.29522    -3143.174   -2693.3694    132.51302    12092.422 
   19150    296.97171      229.077   -3135.8999    -2694.177    385.61126    12089.517 
   19200    295.87087    229.03731   -3134.5769   -2694.4914    472.37176    12086.596 
   19250    291.11442    228.89117   -3129.7058   -2696.6952    642.08919     12083.73 
   19300     298.9869    229.21737    -3140.579   -2695.8587    403.34133    12080.973 
   19350    296.08682    229.09326   -3136.4421   -2696.0354    498.93904    12078.243 
   19400    295.70623     229.0656   -3135.5198   -2695.6792     508.9875    12075.583 
   19450     298.3159    229.19899   -3139.9663    -2696.244    480.05448    12072.966 
   19500    297.33442    229.20079   -3140.0263   -2697.7639    490.31816      12070.4 
   19550    311.27566    229.68888    -3156.296   -2693.2971    85.959074    12067.856 
   19600     303.7566     229.4769   -3149.2301   -2697.4152    353.26466    12065.186 
   19650    289.05434    229.09133   -3136.3777   -2706.4312     831.8599    12062.503 
   19700    284.99066    228.90436   -3130.1454   -2706.2434    904.31878    12060.036 
   19750    302.20455    229.51635   -3150.5452   -2701.0388    258.99884    12057.816 
   19800    298.16004    229.30485    -3143.495   -2700.0046     451.6503    12055.578 
   19850     311.1224    229.82021   -3160.6738   -2697.9028    133.19916    12053.316 
   19900      298.664    229.33874   -3144.6245   -2700.3845    580.83321    12050.952 
   19950    285.38039    228.86834   -3128.9447    -2704.463    1014.2621    12048.688 
   20000    290.24883     228.9628   -3132.0932   -2700.3701    849.99612    12046.749 
   20050     297.5618    229.23804   -3141.2681   -2698.6675    595.60552    12045.057 
   20100    311.08926    229.66287   -3155.4291   -2692.7074    295.88799     12043.45 
   20150    305.18146    229.52458   -3150.8194   -2696.8851    509.61005     12041.81 
   20200    297.02411    229.29427   -3143.1425   -2701.3416    763.96113    12040.243 
   20250    302.30712    229.42383   -3147.4611   -2697.8022    668.22748    12038.844 
   20300    294.86259    229.19025   -3139.6749   -2701.0891    905.53866    12037.614 
   20350     295.6616    229.22528   -3140.8426   -2701.0684    888.28796    12036.639 
   20400    305.19224    229.52614   -3150.8715   -2696.9212    565.68212    12035.905 
   20450    320.68256     230.0445   -3168.1501   -2691.1591    82.959807    12035.251 
   20500    296.14448    229.24913   -3141.6378   -2701.1454     842.4171    12034.491 
   20550    299.30522    229.35645   -3145.2151   -2700.0213    803.07951    12033.898 
   20600    291.12156    229.02893   -3134.2976   -2701.2764    1057.7127    12033.555 
   20650    311.61167    229.80949   -3160.3162   -2696.8175     453.6595    12033.501 
   20700    301.18183    229.50769   -3150.2564   -2702.2712    666.33545    12033.544 
   20750    308.62897    229.69125    -3156.375   -2697.3128    498.50758    12033.691 
   20800    300.38443    229.45473   -3148.4909   -2701.6919    693.30599    12033.917 
   20850    301.52132    229.50349   -3150.1162   -2701.6261     661.0311    12034.275 
   20900    285.63406    229.02272   -3134.0906   -2709.2316    1130.6543    12034.825 
   20950    307.29276    229.72293   -3157.4311   -2700.3564    488.70486    12035.697 
   21000    294.08915    229.27734   -3142.5781   -2705.1428    839.05641    12036.693 
   21050    299.01109    234.48126   -3149.3755   -2704.6191    643.54771     12037.91 
   21100    299.39616    234.40877   -3146.9591     -2701.63    683.09692    12039.282 
   21150    287.08986    234.12294   -3137.4314    -2710.407    1067.9907    12040.838 
   21200    293.63732    234.37052    -3145.684   -2708.9207    849.99819    12042.739 
   21250     287.6986    234.07525   -3135.8418   -2707.9119    995.37975    12044.942 
   21300    297.41288    234.46566   -3148.8553   -2706.4761    585.00772    12047.448 
   21350    294.21219    234.27489   -3142.4963    -2704.878    625.91844    12050.094 
   21400    288.78964    234.04152   -3134.7173   -2705.1646    837.69102    12052.891 
   21450     295.0137    234.19995   -3139.9985    -2701.188    717.20444    12055.931 
   21500    289.54941    233.97728   -3132.5759   -2701.8931    790.53068    12059.183 
   21550    309.09731    234.71453   -3157.1511   -2697.3923    138.22352    12062.617 
   21600    293.32626     234.1441   -3138.1367   -2701.8362    667.08374    12066.006 
   21650    282.74244    233.87711    -3129.237   -2708.6791    923.29038    12069.542 
   21700    293.26119    234.19765   -3139.9216   -2703.7178    546.48721    12073.355 
   21750    298.01764    234.27399   -3142.4663   -2699.1876    449.82944    12077.287 
   21800    300.41748    234.33964   -3144.6546   -2697.8064    308.32915    12081.266 
   21850    300.54466    234.36256   -3145.4187   -2698.3813    186.73731    12085.221 
   21900    280.30167    233.54405   -3118.1351   -2701.2076    854.63803    12089.139 
   21950    295.99953    233.94806    -3131.602   -2691.3252    466.90177    12093.276 
   22000    307.59922    234.34357   -3144.7858   -2687.2553    66.890757    12097.486 
   22050     303.0845    229.21194   -3140.3981   -2689.5829    178.42091     12101.54 
   22100    288.01593    228.70894   -3123.6314   -2695.2295    531.99131    12105.505 
   22150    299.85476    229.03549   -3134.5165   -2688.5052     227.5154    12109.498 
   22200    293.36631    228.83036   -3127.6787   -2691.3185    392.42453    12113.449 
   22250    311.90237    229.35516    -3145.172   -2681.2409   -153.69588    12117.354 
   22300    292.98463    228.66743   -3122.2477   -2686.4553    447.42455    12121.034 
   22350    297.92238     228.7813   -3126.0434   -2682.9064    317.49886    12124.692 
   22400    302.87593     228.8382   -3127.9401   -2677.4351    141.25433    12128.318 
   22450    303.92842     228.8528   -3128.4266   -2676.3561    129.67372    12131.811 
   22500    304.61676       228.88   -3129.3333   -2676.2389    143.58372    12135.158 
   22550    300.05911    228.62005   -3120.6685   -2674.3533    378.55804    12138.386 
   22600    299.86956    228.51042   -3117.0139   -2670.9807    445.59264    12141.599 
   22650    299.08515    228.41711   -3113.9036   -2669.0371    427.31763    12144.849 
   22700    311.82248    228.89797   -3129.9323     -2666.12   -4.1314418    12148.088 
   22750    312.65289    228.84921   -3128.3071   -2663.2596   -2.6865863    12151.129 
   22800    305.55921    228.53114   -3117.7045   -2663.2084    237.56429    12153.959 
   22850    303.42707    228.51132   -3117.0438   -2665.7191    215.32728    12156.686 
   22900     291.0457    228.03512   -3101.1707   -2668.2623    544.66664     12159.34 
   22950    305.22444     228.4577   -3115.2566   -2661.2584    167.10868    12162.044 
   23000    320.89059    229.05245   -3135.0818   -2657.7813   -289.56881    12164.629 
   23050    308.36134    228.47114   -3115.7048   -2657.0407    175.39141    12166.879 
   23100    313.36315    228.62021   -3120.6737   -2654.5698    15.112993    12168.958 
   23150    310.67127    228.56131   -3118.7102   -2656.6103    65.358029    12170.837 
   23200    302.31781    228.23462   -3107.8206   -2658.1458    350.79688    12172.557 
   23250    319.16269     228.6856   -3122.8534   -2648.1231   -101.15027    12174.208 
   23300    312.06692    228.41258   -3113.7527   -2649.5768     103.6295    12175.624 
   23350    308.47926    228.36037   -3112.0124   -2653.1728    208.46582    12176.876 
   23400    317.04807    228.60875   -3120.2918   -2648.7069   -3.5782235    12177.998 
   23450    307.71811    228.23582   -3107.8607   -2650.1533    234.93577    12178.922 
   23500    305.18332    228.17481   -3105.8272   -2651.8901    307.12621    12179.749 
   23550    309.57244    228.19559   -3106.5198   -2646.0543    217.28602    12180.531 
   23600     310.0202    228.32486   -3110.8286    -2649.697     155.1146    12181.194 
   23650    300.77816    228.00498   -3100.1662   -2652.7814    430.26561    12181.749 
   23700     309.1832    228.22901   -3107.6338   -2647.7472    181.63931    12182.293 
   23750    297.37506    227.85894    -3095.298   -2652.9751    508.05888    12182.759 
   23800     310.8743     228.3435   -3111.4501   -2649.0481    118.59291    12183.239 
   23850    311.36123    228.32891   -3110.9637   -2647.8374    157.60192    12183.586 
   23900    306.61411    228.17429   -3105.8096   -2649.7443    361.87979      12183.8 
   23950    307.55586    228.12295   -3104.0984   -2646.6323     334.5381     12183.99 
   24000    311.27417    228.20693   -3106.8976   -2643.9008    256.46432    12184.127 
   24050    301.51772    232.92694   -3097.5645   -2649.0797    588.36438    12184.216 
   24100    314.77813    233.39872   -3113.2907   -2645.0821      209.881    12184.365 
   24150    300.17041    232.99645   -3099.8815   -2653.4008    554.15654    12184.479 
   24200    301.21214    232.98372   -3099.4572    -2651.427     558.8332    12184.661 
   24250    310.30207    233.30595   -3110.1982   -2648.6474    280.21628     12184.93 
   24300    309.01313     233.2582   -3108.6065   -2648.9729    235.01441    12185.172 
   24350    312.08276    233.34798   -3111.5992   -2647.3997    69.689337    12185.309 
   24400    305.29671    233.09803   -3103.2677    -2649.162    159.58905    12185.291 
   24450     295.7126    232.82698   -3094.2327   -2654.3826    426.56736     12185.17 
   24500    303.98298    233.19464    -3106.488   -2654.3364    261.12967    12185.043 
   24550    315.23238    233.47843   -3115.9478   -2647.0635    -24.97955    12184.848 
   24600    307.18391    233.19791    -3106.597   -2649.6842    135.34501     12184.47 
   24650    313.14973    233.45711   -3115.2369   -2649.4504   -53.756517    12183.933 
   24700    302.00392    233.14498   -3104.8326   -2655.6247    306.64947    12183.197 
   24750    306.65011    233.36228    -3112.076   -2655.9572    185.42301     12182.38 
   24800    303.30958    233.30421   -3110.1402   -2658.9902    283.92555    12181.476 
   24850    302.50162     233.2173   -3107.2432    -2657.295    366.50675    12180.514 
   24900    295.37244    233.00193   -3100.0642   -2660.7201    461.41953    12179.565 
   24950    297.99294    233.11766   -3103.9221   -2660.6802    261.31858     12178.64 
   25000    302.89799    233.31714   -3110.5712   -2660.0334    64.052511     12177.65 
   25050     306.4997    233.48122   -3116.0406   -2660.1455   -108.61532    12176.509 
   25100    306.70403    233.52625   -3117.5416   -2661.3426   -171.57004    12175.096 
   25150    303.57372    233.42955   -3114.3185   -2662.7756   -31.951841    12173.379 
   25200    299.48892    233.32019    -3110.673    -2665.206    152.06185    12171.439 
   25250    291.30089    233.13897   -3104.6324   -2671.3444    420.00082    12169.396 
   25300    300.93007    233.54045   -3118.0151   -2670.4044    90.363761    12167.346 
   25350    302.50393    233.69967   -3123.3222   -2673.3706   -7.8632659    12165.151 
   25400    287.22602    233.17853    -3105.951   -2678.7241    521.42827    12162.783 
   25450    292.05371    233.26561   -3108.8536   -2674.4458    449.50445    12160.473 
   25500    298.70219    233.60243   -3120.0811   -2675.7842    122.31586    12158.197 
   25550    295.24747    233.48544   -3116.1814   -2677.0231      109.897    12155.807 
   25600    297.50076    233.66166   -3122.0554   -2679.5456    36.779739    12153.258 
   25650    286.53255    233.28992   -3109.6641   -2683.4686    395.50337    12150.554 
   25700    309.90522    234.06449    -3135.483   -2674.5225   -300.16597    12147.788 
   25750    288.33847    233.36069   -3112.0231   -2683.1415    373.07462    12144.741 
   25800     288.9539    233.47953   -3115.9844   -2686.1874    287.62972    12141.639 
   25850    305.30845     234.1069   -3136.8968   -2682.7736   -405.07649    12138.461 
   25900    307.16048    234.22046   -3140.6821   -2683.8042   -372.58509    12134.895 
   25950    298.46226    233.87245   -3129.0816   -2685.1416    172.09724    12130.941 
   26000    294.23036    233.74946   -3124.9819   -2687.3365    369.22116     12126.84 
   26050    276.57981    233.19672   -3106.5574   -2695.1659    846.08688    12122.761 
   26100    294.79656     233.9143   -3130.4766   -2691.9891    188.48478    12118.863 
   26150    302.01849    234.16129   -3138.7097   -2689.4801   -35.354208    12114.893 
   26200    295.69037    233.96761   -3132.2537   -2692.4367     255.1973    12110.728 
   26250    278.68392    233.31364   -3110.4548   -2695.9336    872.93538    12106.523 
   26300    290.38346    233.79545   -3126.5151   -2694.5917    554.34864    12102.527 
   26350    297.46826    234.00243   -3133.4143   -2690.9528    316.48601    12098.646 
   26400    287.01447    233.74425   -3124.8084   -2697.8961    579.66705    12094.754 
   26450    297.98513    234.13498   -3137.8327   -2694.6024    291.76154    12090.937 
   26500     294.5675    233.99303   -3133.1011   -2694.9542    439.85611    12087.118 
   26550    291.24319    233.97963   -3132.6542    -2699.452    559.99442    12083.309 
   26600    305.73544    234.47945   -3149.3149   -2694.5566    135.17748    12079.564 
   26650    300.43856    234.30336   -3143.4452   -2696.5656    347.92146    12075.722 
   26700     290.9964    234.00519   -3133.5064   -2700.6713    689.45696     12071.86 
   26750    294.63662    234.17367   -3139.1223   -2700.8727    571.55846    12068.141 
   26800    297.37017    234.27435   -3142.4783   -2700.1627    576.91373    12064.531 
   26850    300.63911    234.42956   -3147.6519   -2700.4741    563.97631    12061.023 
   26900    284.97174    233.90463   -3130.1543   -2706.2804    1019.9611     12057.64 
   26950    295.63364    234.32203   -3144.0676    -2704.335    620.61811    12054.564 
   27000    296.28185    234.34762   -3144.9206   -2704.2238    665.50821     12051.65 
   27050    294.18001    234.24929   -3141.6431   -2704.0726    850.40552    12048.881 
   27100    287.24743    233.99737   -3133.2456   -2705.9868    1003.0588    12046.374 
   27150    292.35643    234.17142   -3139.0474   -2704.1894    805.62553    12044.171 
   27200    289.45742    234.09722   -3136.5739   -2706.0279    918.44901    12042.214 
   27250    285.63207     233.9617   -3132.0565   -2707.2005    1116.4833    12040.555 
   27300    291.75402    234.24542   -3141.5139   -2707.5519    971.30149    12039.274 
   27350    290.99315    234.24899   -3141.6332   -2708.8029    977.68192    12038.331 
   27400    302.13524    234.56014   -3152.0046   -2702.6013    612.70559    12037.693 
   27450    304.92729    234.73859    -3157.953   -2704.3968    485.57759     12037.19 
   27500     292.4564    234.30589   -3143.5297    -2708.523    828.98662    12036.795 
   27550    292.82898    234.25755   -3141.9184   -2706.3575    772.08928    12036.631 
   27600    298.94044    234.47135   -3149.0452   -2704.3939    613.21098    12036.681 
   27650    305.25636     234.7792   -3159.3068   -2705.2611    494.68949    12036.859 
   27700    279.42829    233.84869   -3128.2897   -2712.6613    1299.6378    12037.165 
   27750    295.25994    234.33982   -3144.6606   -2705.4838    821.10129    12037.888 
   27800    288.63624       234.13   -3137.6668   -2708.3422    960.68199    12038.893 
   27850    285.10403    234.04976    -3134.992   -2710.9214    1044.6734    12040.211 
   27900    280.50868    233.83086   -3127.6955     -2710.46    1207.1616    12041.927 
   27950    285.85055     233.9847   -3132.8232   -2707.6422    1061.9864    12044.095 
   28000    294.95737    234.24937   -3141.6458   -2702.9191    743.69001    12046.637 
   28050    294.81236    234.21152   -3140.3841   -2701.8731    719.76668    12049.411 
   28100    296.37734     234.3168   -3143.8932   -2703.0544    656.47769    12052.378 
   28150    290.44932    234.04339   -3134.7796   -2702.7582    861.24091    12055.529 
   28200    292.04117    234.15085   -3138.3616   -2703.9724    785.25824    12058.936 
   28250    294.60993    234.15759   -3138.5862   -2700.3763    734.07456    12062.596 
   28300    293.29466    233.98193   -3132.7309   -2696.4773    924.71594    12066.488 
   28350    295.11454    234.01108   -3133.7026   -2694.7421    934.24873    12070.689 
   28400    290.49745     233.7695     -3125.65   -2693.5571    1063.1336    12075.225 
   28450    299.04469    233.99478   -3133.1593    -2688.353    795.34299    12080.117 
   28500    292.56206    233.78112   -3126.0373   -2690.8735    964.11004     12085.28 
   28550    301.22875    234.14908   -3138.3027   -2690.2477    557.61928    12090.758 
   28600    301.12317    234.04963   -3134.9878   -2687.0899    460.25995    12096.389 
   28650    300.32219    233.99491   -3133.1638   -2686.4573    469.77332    12102.087 
   28700    300.09014    233.80624   -3126.8748   -2680.5135    525.35411    12107.884 
   28750    301.47035    233.77275   -3125.7585   -2677.3442    492.47472    12113.783 
   28800    301.25601     233.7283   -3124.2766   -2676.1812    510.98945    12119.763 
   28850    290.80732    233.41802   -3113.9339   -2681.3801    801.52011    12125.857 
   28900    298.71484    233.68332   -3122.7774   -2678.4617    536.10081    12132.177 
   28950    303.60044    233.74009   -3124.6698   -2673.0871    395.41588     12138.62 
   29000    296.16124    233.37153   -3112.3843   -2671.8669    643.07397    12145.132 
   29050    303.29735    238.52278   -3117.4259   -2666.2941    373.55931    12151.804 
   29100    298.27875    238.31514   -3110.5048   -2666.8378    498.19219    12158.548 
   29150    304.07293     238.4539   -3115.1301   -2662.8446    312.18794    12165.387 
   29200    308.53054     238.5414   -3118.0467   -2659.1309    232.22728     12172.24 
   29250    288.92322     237.7621   -3092.0701   -2662.3187    915.78459    12179.109 
   29300    287.11663    237.76583   -3092.1945   -2665.1302    912.32166    12186.282 
   29350    297.16918    238.06923   -3102.3075   -2660.2909     454.3396    12193.785 
   29400    304.35177    238.25688   -3108.5626   -2655.8624    67.320275    12201.395 
   29450    309.93698    238.43178   -3114.3926   -2653.3848    -241.5002    12208.874 
   29500    299.04367    238.01001   -3100.3336   -2655.5288   -68.903828    12216.088 
   29550    302.55812    238.08483   -3102.8276   -2652.7954   -176.62707    12223.076 
   29600    298.27821    237.90095   -3096.6983   -2653.0321     65.31912    12229.828 
   29650    291.94631    237.64669   -3088.2229   -2653.9749    307.31254    12236.454 
   29700    295.70027    237.77685   -3092.5618   -2652.7301    116.81248    12243.064 
   29750    288.16326    237.41278    -3080.426    -2651.805    272.37673    12249.616 
   29800    299.99108     237.7557   -3091.8566   -2645.6426   -124.28715    12256.119 
   29850    289.02712    237.36362   -3078.7873   -2648.8813    188.24015    12262.436 
   29900    292.72979    237.42751    -3080.917   -2645.5036    56.174884    12268.666 
   29950    298.21468    237.63475   -3087.8249   -2644.2532   -200.54336    12274.765 
   30000    305.75433    237.82799   -3094.2665   -2639.4801   -454.51432    12280.586 
   30050    309.97212     233.0119   -3100.3967   -2639.3366    -623.3742    12285.985 
   30100      301.901    232.70571   -3090.1904   -2641.1355   -311.43972     12290.86 
   30150    291.23909    232.31367   -3077.1223   -2643.9263    102.21377    12295.379 
   30200    298.62416    232.50958   -3083.6525   -2639.4717   -115.11083    12299.743 
   30250    299.88259      232.422   -3080.7335   -2634.6808   -97.595276    12303.873 
   30300    292.01607    232.15848   -3071.9492   -2637.5974     79.10974    12307.772 
   30350    304.40719    232.50301   -3083.4338   -2630.6512   -341.08734    12311.475 
   30400    306.86871    232.68257   -3089.4191   -2632.9752   -433.83665    12314.819 
   30450    300.24875    232.39531   -3079.8436   -2633.2463   -203.99099    12317.744 
   30500    299.14884      232.293   -3076.4333   -2631.4721   -248.04477    12320.343 
   30550    316.83348    232.80016   -3093.3385   -2622.0727   -800.02986    12322.582 
   30600    304.94736    232.45241    -3081.747   -2628.1609   -399.04075    12324.223 
   30650    310.14743    232.62744   -3087.5814   -2626.2606   -532.86251    12325.396 
   30700     309.0816    232.52793   -3084.2643   -2624.5288   -511.03602    12326.071 
   30750     292.6278    231.89552   -3063.1839   -2627.9222   -57.304042    12326.289 
   30800    300.39373    232.15814   -3071.9381   -2625.1252   -288.74144    12326.219 
   30850     311.5769    232.56282   -3085.4274   -2621.9804   -585.74637     12325.76 
   30900    299.94615     232.1333     -3071.11   -2624.9628   -253.22405    12324.808 
   30950    308.31906     232.4195   -3080.6501   -2622.0488   -521.79864    12323.478 
   31000     306.6611    232.34016   -3078.0053   -2621.8701   -469.21599    12321.679 
   31050    303.07161    232.16429   -3072.1431    -2621.347   -306.86043    12319.387 
   31100    314.74657    232.51291   -3083.7635   -2615.6019   -660.38792    12316.677 
   31150    319.80744    232.68307   -3089.4355   -2613.7462   -748.76583    12313.396 
   31200    300.66347    232.05498   -3068.4992   -2621.2851   -117.84502    12309.515 
   31250    299.81265     232.0631   -3068.7699   -2622.8213   -82.539053    12305.316 
   31300    305.58574    232.27245   -3075.7484   -2621.2127   -161.27533    12300.849 
   31350    314.44547    232.60186   -3086.7286   -2619.0147   -285.33592    12296.055 
   31400    312.32985    232.51047   -3083.6822   -2619.1152   -131.77943    12290.899 
   31450    297.39633    231.94238    -3064.746   -2622.3915    357.05436    12285.458 
   31500    304.53326    232.25435   -3075.1449   -2622.1748    130.36614    12279.941 
   31550    312.84146    232.54934   -3084.9782   -2619.6502   -52.151924    12274.281 
   31600    302.81522     232.2357   -3074.5233   -2624.1086    322.98747    12268.397 
   31650    313.30279    232.65162   -3088.3874   -2622.3733    67.958236    12262.426 
   31700    312.49146    232.56152   -3085.3841   -2620.5767    134.51734    12256.283 
   31750    302.68552    232.24427   -3074.8089   -2624.5871    473.79393    12250.007 
   31800    306.21272    232.43993   -3081.3309   -2625.8627    455.13933    12243.744 
   31850    301.76597     232.3177   -3077.2566   -2628.4026    641.35555    12237.509 
   31900    315.70786    232.75802   -3091.9339   -2622.3424    245.10564    12231.354 
   31950    314.03455    232.77202   -3092.4007   -2625.2981    348.76108    12225.149 
   32000    318.44202    232.89361   -3096.4537   -2622.7953    366.16899    12218.893 
   32050    323.15093    238.06566   -3102.1886   -2621.5261    226.09112    12212.606 
   32100    315.00364    237.82042   -3094.0141   -2625.4701    444.06831    12206.232 
   32150    298.78648    237.27217    -3075.739   -2631.3167     1034.326    12199.889 
   32200    301.86727    237.47672   -3082.5572   -2633.5525    998.42274    12193.875 
   32250    308.03841    237.70348    -3090.116   -2631.9322    750.29553    12188.196 
   32300    308.40517    237.69005   -3089.6684   -2630.9391    811.47266    12182.724 
   32350    300.07212    237.48905   -3082.9685   -2636.6339    1127.5549    12177.506 
   32400    314.23938    238.01691   -3100.5638   -2633.1565    669.68663    12172.642 
   32450    319.37585    238.25214   -3108.4048   -2633.3574    443.92088    12167.941 
   32500    305.57456    237.84158   -3094.7194   -2640.2004    792.01045    12163.307 
   32550    301.74724    237.78486   -3092.8288   -2644.0027    865.14087    12158.884 
   32600    312.12666    238.24708    -3108.236   -2643.9713    517.87882    12154.704 
   32650    318.28375     238.4953   -3116.5101   -2643.0871    486.81179    12150.605 
   32700    305.12469    238.01306   -3100.4354   -2646.5856    1001.4876    12146.608 
   32750    307.82182    238.20431   -3106.8104   -2648.9488    820.30524    12142.906 
   32800    287.39182    237.59805   -3086.6016    -2659.128    1356.9023    12139.496 
   32850    294.72419    237.92951   -3097.6503   -2659.2704    1120.8396    12136.584 
   32900    310.93431    238.59743   -3119.9142    -2657.423    529.73344    12134.062 
   32950    315.09864    238.74869   -3124.9565   -2656.2711    330.99385    12131.653 
   33000    308.91076    238.54017   -3118.0058   -2658.5244    438.90424    12129.236 
   33050    296.20933    243.08451   -3102.8171   -2662.2281    833.99458    12126.851 
   33100    299.59317    243.33736   -3111.2454   -2665.6233    634.34543    12124.713 
   33150    310.78985     243.8332   -3127.7734    -2665.497    272.48114    12122.741 
   33200     293.8305    243.26536   -3108.8454   -2671.7948    813.10975    12120.783 
   33250     291.3314    243.19888   -3106.6292   -2673.2958    899.27991    12119.057 
   33300    295.05359    243.38812   -3112.9373   -2674.0674    811.24673    12117.629 
   33350    298.39979    243.57982   -3119.3274   -2675.4803    676.60896    12116.458 
   33400    294.36839    243.49723   -3116.5745   -2678.7238    811.84219    12115.495 
   33450    276.24824    242.83669   -3094.5565   -2683.6582    1379.2731    12114.846 
   33500    292.29281    243.39111   -3113.0369   -2678.2735    849.89192    12114.705 
   33550    288.72453    243.25313   -3108.4377   -2678.9818    881.00514    12114.901 
   33600    292.86179    243.47411   -3115.8036   -2680.1938     702.5093    12115.385 
   33650    283.58486    243.23443   -3107.8142   -2686.0032    956.84698    12116.119 
   33700    292.50585    243.62711   -3120.9036   -2685.8233    691.90427    12117.178 
   33750    288.86393    243.34968   -3111.6561   -2681.9929    754.19894    12118.484 
   33800    289.63351    243.44723   -3114.9077   -2684.0998    615.24999    12120.014 
   33850    284.81557    243.17116   -3105.7055   -2682.0639    889.23969    12121.736 
   33900    285.85461    243.19153   -3106.3842   -2681.1972    860.14059    12123.779 
   33950    293.51766    243.57522   -3119.1739   -2682.5886    511.60882    12126.118 
   34000    298.00172    243.64573   -3121.5244   -2678.2694    407.75394    12128.591 
   34050    310.57123     239.0076   -3133.5868   -2671.6356    16.284682    12131.104 
   34100    307.86931    239.00575   -3133.5249   -2675.5926   -30.460766    12133.469 
   34150    299.77247    238.64056   -3121.3522   -2675.4633    231.88395     12135.64 
   34200    296.35518    238.54091   -3118.0302   -2677.2243    387.07089    12137.756 
   34250    305.61482    238.88287   -3129.4291   -2674.8502    104.90539    12139.883 
   34300     308.2769    239.01116   -3133.7055    -2675.167    18.076428    12141.892 
   34350      286.788    238.19677   -3106.5589   -2679.9835    743.70736    12143.789 
   34400    279.28721    237.93724    -3097.908   -2682.4895    950.42953    12145.906 
   34450    303.77055    238.69311   -3123.1038   -2671.2681    174.52388    12148.309 
   34500    299.01787    238.56228   -3118.7427   -2673.9763     219.5522     12150.67 
   34550    292.48423     238.3724   -3112.4132   -2677.3651     312.9303    12152.965 
   34600     288.1623    238.14969   -3104.9896     -2676.37    452.63503    12155.261 
   34650    288.40394    238.18155   -3106.0518   -2677.0728     461.0633    12157.641 
   34700    296.54645    238.39661   -3113.2202   -2672.1298    210.46242    12160.085 
   34750    305.12368    238.68549   -3122.8496   -2669.0012    -152.4539    12162.466 
   34800    300.85735    238.55418   -3118.4727   -2670.9702    45.019138    12164.613 
   34850    281.18941    237.83104   -3094.3681   -2676.1202    821.64898    12166.635 
   34900    296.05703    238.35265   -3111.7551   -2671.3927    329.90455    12168.866 
   34950     296.2595    238.43147   -3114.3822   -2673.7187    190.03719    12171.142 
   35000    295.24383    238.47431   -3115.8103   -2676.6575    157.66174    12173.347 
   35050     303.4561    233.65626   -3121.8752   -2670.5072   -77.800228     12175.44 
   35100    304.35657    233.68662   -3122.8872   -2670.1799   -95.216625    12177.312 
   35150    287.89186    233.00435    -3100.145   -2671.9277    451.32365    12178.977 
   35200    291.73439    233.10459   -3103.4864   -2669.5536    342.85306    12180.657 
   35250    303.11313    233.50324   -3116.7747   -2665.9168    26.594543    12182.342 
   35300    302.94084    233.45276   -3115.0918   -2664.4903    53.501979    12183.862 
   35350    300.64645    233.32128   -3110.7095   -2663.5207    96.254037    12185.218 
   35400    311.88401    233.76548    -3125.516   -2661.6122    -271.2573     12186.41 
   35450    300.99569    233.45006   -3115.0019   -2667.2936    32.115107    12187.299 
   35500    295.91477    233.21879   -3107.2929   -2667.1421    248.18336    12188.004 
   35550    286.87659    232.81032   -3093.6773   -2666.9701    600.90475     12188.67 
   35600    291.92693    232.95891   -3098.6304   -2664.4112    455.16071    12189.443 
   35650    311.82656    233.71863   -3123.9544    -2660.136   -259.52365    12190.239 
   35700    304.92763    233.38582   -3112.8607    -2659.304   -31.075986     12190.74 
   35750    296.67033    232.97241   -3099.0803   -2657.8057    305.83662    12191.024 
   35800    305.73353      233.387   -3112.8998   -2658.1444      44.7994    12191.246 
   35850    309.29439    233.40907   -3113.6357   -2653.5837    23.818937    12191.298 
   35900    299.95672    233.11429   -3103.8096   -2657.6467     285.9955    12191.188 
   35950    308.10711    233.30713   -3110.2375   -2651.9516    108.11428    12190.996 
   36000    289.07675    232.68867   -3089.6222   -2659.6424    714.02236    12190.712 
   36050    296.85215    232.84316    -3094.772   -2653.2269    575.19827    12190.595 
   36100    302.58665    233.06605   -3102.2016   -2652.1269    372.09135    12190.585 
   36150    286.91815     232.5279   -3084.2633   -2657.4943    835.59244    12190.601 
   36200    299.44779    232.97938   -3099.3127   -2653.9068    425.55629    12190.818 
   36250    303.24832       233.09   -3102.9999    -2651.941    312.45085    12191.097 
   36300    307.22016    233.04782   -3101.5941   -2644.6274     246.8024    12191.349 
   36350     316.4072    233.28808   -3109.6026   -2638.9708     13.81685    12191.515 
   36400    314.24992    233.17125   -3105.7084   -2638.2855    172.42369    12191.496 
   36450    298.96434    232.62188   -3087.3959   -2642.7091    674.66704    12191.395 
   36500    304.59296     232.8003   -3093.3434   -2640.2844    610.22221    12191.412 
   36550    308.14713    232.91803   -3097.2675    -2638.922    594.64303    12191.565 
   36600    314.33031    233.13401   -3104.4671   -2636.9246    461.01596     12191.83 
   36650    309.08351     232.8725   -3095.7502   -2636.0119    638.22286    12192.151 
   36700    306.76452     232.7611   -3092.0367   -2635.7477    738.23715      12192.6 
   36750    300.51423    232.46709   -3082.2362   -2635.2441    987.25837    12193.276 
   36800    313.78073    232.91812   -3097.2705   -2630.5455    570.86451    12194.256 
   36850    309.43527    232.74409   -3091.4698   -2631.2083    715.75184    12195.374 
   36900    313.08444    232.78149   -3092.7165   -2627.0271    677.12934    12196.662 
   36950    314.16742    232.77386   -3092.4619   -2625.1617    702.58078    12198.125 
   37000    314.74847    232.72305   -3090.7684   -2622.6039    763.65092     12199.77 
   37050    315.55229    237.83129   -3094.3762   -2625.0161    673.91648    12201.629 
   37100    291.49744    236.97354   -3065.7848   -2632.2045     1349.539    12203.709 
   37150    299.50218    237.16938   -3072.3126   -2626.8258     1097.082     12206.29 
   37200    305.09673    237.26508   -3075.5027   -2621.6944    975.03454    12209.319 
   37250    305.78884    237.38546   -3079.5154   -2624.6776    997.77169     12212.72 
   37300    325.56971    238.00135   -3100.0449   -2615.7846     439.0317    12216.459 
   37350    315.35137    237.60239   -3086.7462    -2617.685    728.77938    12220.318 
   37400    327.01303    238.04663   -3101.5542   -2615.1471    273.82465    12224.356 
   37450    320.86003    237.77621   -3092.5404   -2615.2854    406.59633      12228.4 
   37500    307.34289    237.27038   -3075.6793   -2618.5301    818.85912    12232.489 
   37550    304.76698    237.10572   -3070.1905   -2616.8728    903.15391    12236.842 
   37600    302.80752    237.04159   -3068.0529   -2617.6497    853.57156    12241.537 
   37650    331.53187    238.06736   -3102.2452   -2609.1167   -187.79785    12246.472 
   37700    320.79825    237.69603   -3089.8677   -2612.7047    85.205021    12251.213 
   37750    323.67174    237.75547   -3091.8491   -2610.4119    92.475625    12255.802 
   37800    312.69358    237.40757   -3080.2522   -2615.1442     433.9741    12260.306 
   37850    301.76078    236.96611   -3065.5369   -2616.6906     905.9068    12264.883 
   37900    301.54359    236.98236   -3066.0788   -2617.5556    802.57618    12269.767 
   37950    304.64891    237.01951    -3067.317   -2614.1749    511.23166    12274.934 
   38000    304.72322    236.99281   -3066.4271   -2613.1744    378.65546    12280.228 
   38050    304.55204    236.91752   -3063.9173   -2610.9192    369.12713     12285.59 
   38100    307.89934    237.02882   -3067.6274   -2609.6505    229.05754    12291.004 
   38150    316.16259    237.12357   -3070.7855   -2600.5177    18.701161    12296.359 
   38200    309.66127    236.96835   -3065.6116   -2605.0139    232.74875    12301.574 
   38250      317.671    237.24675   -3074.8917   -2602.3802   -81.258808    12306.736 
   38300     311.6488    237.07114   -3069.0381   -2605.4841   -36.582202    12311.695 
   38350    314.78511    237.12685   -3070.8949   -2602.6759   -140.85645    12316.438 
   38400    301.69548    236.66767   -3055.5889   -2606.8397    125.91446    12320.986 
   38450    318.01276    237.24968   -3074.9894   -2601.9695   -429.95691    12325.378 
   38500    309.84793    236.99014   -3066.3379   -2605.4625   -238.19118    12329.415 
   38550    311.58635    237.13798   -3071.2658   -2607.8048    -361.6536    12333.117 
   38600    310.52674    237.03607   -3067.8688   -2605.9838   -345.69461    12336.457 
   38650    315.64425    237.25364   -3075.1213   -2605.6244   -431.91785    12339.406 
   38700    290.41788    236.45668   -3048.5559   -2616.5813      371.698    12341.994 
   38750    291.65703    236.45357   -3048.4522   -2614.6345    369.18248     12344.57 
   38800    297.43793    236.69229   -3056.4096   -2613.9932    80.780288     12347.19 
   38850      318.303    237.37786   -3079.2618   -2605.8103   -663.89952    12349.626 
   38900    307.30686    237.06944   -3068.9813   -2611.8856   -461.08077    12351.556 
   38950    306.40537     237.0451   -3068.1701   -2612.4153   -406.77726    12353.025 
   39000    297.86461    236.77688   -3059.2292   -2616.1782    -208.6131      12354.1 
   39050      299.276    241.83803   -3061.2675   -2616.1172   -296.96255    12354.862 
   39100    298.06854    241.79424   -3059.8079   -2616.4535   -188.88867    12355.298 
   39150    292.85172    241.60662    -3053.554   -2617.9593    30.714351    12355.468 
   39200     302.1894    241.95456   -3065.1519   -2615.6681   -287.09373    12355.437 
   39250    301.55648    241.98466   -3066.1554    -2617.613   -291.15323    12355.092 
   39300    305.16655    242.12539   -3070.8463   -2616.9342   -410.46826    12354.398 
   39350    308.56708    242.24151   -3074.7169   -2615.7467   -530.80339    12353.289 
   39400    290.59689    241.69547   -3056.5158   -2624.2749    4.9960924    12351.745 
   39450     296.3077    241.97292   -3065.7638   -2625.0286   -181.49479    12349.969 
   39500    292.08734    241.87751   -3062.5836   -2628.1258   -160.06695    12347.923 
   39550    299.33543    241.97703   -3065.9009   -2620.6621   -386.35085    12345.585 
   39600    298.34898      241.975   -3065.8333   -2622.0618   -377.03022    12342.846 
   39650    287.37898    241.61638   -3053.8794    -2626.425    -11.60067    12339.725 
   39700     303.9577    242.31947   -3077.3157   -2625.2016   -574.50942    12336.347 
   39750    301.02127    242.18446   -3072.8155   -2625.0692   -439.58095    12332.476 
   39800    286.84496    241.78497   -3059.4992    -2632.839     59.12371    12328.176 
   39850    302.57657    242.30377   -3076.7924   -2626.7327   -390.13516    12323.645 
   39900    292.12817    241.93977   -3064.6589   -2630.1404    1.4191261    12318.737 
   39950    289.57403    241.96009   -3065.3364    -2634.617    97.652765    12313.604 
   40000    287.57915    241.89636   -3063.2121   -2635.4599    190.58775    12308.329 
   40050    287.82203    241.90251   -3063.4169   -2635.3034     279.0618    12302.956 
   40100    293.26362    242.13801   -3071.2669   -2635.0595     123.1793    12297.516 
   40150    314.74762    243.02954   -3100.9848   -2632.8216    -714.9075    12291.882 
   40200    303.54424    242.64635   -3088.2117   -2636.7126   -431.96067    12285.711 
   40250    305.50399     242.7148   -3090.4933   -2636.0793   -342.61456    12279.055 
   40300    294.21749     242.3534   -3078.4468   -2640.8206    68.648082    12272.011 
   40350     294.3618    242.48869   -3082.9562   -2645.1153    53.537473     12264.76 
   40400    274.18331    241.73985   -3057.9949    -2650.168    755.58498    12257.388 
   40450     295.6903    242.50355   -3083.4517   -2643.6348     181.6212    12250.132 
   40500    308.09615    243.05798   -3101.9326   -2643.6629   -271.68607    12242.784 
   40550    310.05051     243.2221   -3107.4034   -2646.2267   -273.40958    12235.075 
   40600    290.76523    242.53965    -3084.655   -2652.1637    447.37898    12227.036 
   40650    292.79677    242.63116   -3087.7052   -2652.1922    426.95787    12218.986 
   40700    303.05591    242.93827   -3097.9423   -2647.1696    144.81099    12210.949 
   40750    304.40506    242.93341   -3097.7802   -2645.0008    206.58265    12202.772 
   40800    296.93898     242.7832   -3092.7734   -2651.0992    480.95826    12194.497 
   40850    305.76254    243.07985   -3102.6615   -2647.8629     327.4981    12186.233 
   40900    298.30865    242.85183   -3095.0611   -2651.3496    665.36441    12177.968 
   40950    299.94622    242.92881   -3097.6271   -2651.4799    615.17107    12169.812 
   41000    305.08664    243.16492   -3105.4972    -2651.704    481.50193    12161.758 
   41050    298.07249    242.89098    -3096.366   -2653.0058    852.95737    12153.793 
   41100    308.59391    243.36232   -3112.0774   -2653.0673    613.40638    12146.028 
   41150    299.45112    243.11668   -3103.8892   -2658.4784    920.23957    12138.397 
   41200    298.20287    243.16359    -3105.453   -2661.8988    1040.4186    12131.025 
   41250     295.1185    242.98155    -3099.385   -2660.4186    1242.3106    12124.029 
   41300    311.74951    243.73948   -3124.6494   -2660.9456    651.16763    12117.448 
   41350    315.14135    243.78657   -3126.2189     -2657.47      562.006    12111.042 
   41400    303.65001     243.4271   -3114.2365   -2662.5801    1033.0156    12104.742 
   41450    289.52287    242.84771   -3094.9237   -2664.2803    1595.7791    12098.811 
   41500    306.50617    243.55176    -3118.392   -2662.4873    1038.7513    12093.475 
   41550    304.35612    243.51938   -3117.3127    -2664.606    1146.5716    12088.536 
   41600    299.33015     243.3593   -3111.9768   -2666.7459    1328.3537    12084.014 
   41650    305.61624    243.62594   -3120.8648   -2666.2838    1069.3357    12079.986 
   41700    300.68023    243.63376   -3121.1255   -2673.8864    1055.9908     12076.35 
   41750    309.84579    243.94551   -3131.5171   -2670.6449    711.09633    12073.059 
   41800    306.50927    243.86112    -3128.704   -2672.7947    881.30219    12069.994 
   41850    301.27075     243.6372   -3121.2398   -2673.1224    1143.4869    12067.223 
   41900    300.58901    243.65404   -3121.8014    -2674.698    1260.9403     12064.86 
   41950    289.12259    243.30946   -3110.3152   -2680.2673    1561.5861    12063.023 
   42000    318.50931    244.49921   -3149.9738   -2676.2153    517.79798    12061.757 
   42050    292.42717    243.52075   -3117.3585   -2682.3952    1380.8347    12060.703 
   42100    286.60693    243.32514   -3110.8379   -2684.5318    1604.1963    12060.159 
   42150    287.21913    243.43099   -3114.3663   -2687.1496    1549.8691    12060.301 
   42200    288.65488    243.54034   -3118.0114   -2688.6592    1489.0632    12061.116 
   42250     290.8849    243.62165   -3120.7217   -2688.0525    1390.5055    12062.571 
   42300    285.53204    243.41004   -3113.6681   -2688.9609    1443.4493    12064.629 
   42350    296.54733    243.86835   -3128.9448   -2687.8532     907.1314    12067.264 
   42400    298.54221    243.94318   -3131.4392   -2687.3803    737.86442    12070.262 
   42450    291.54483    243.61583   -3120.5277   -2686.8769    896.39558    12073.536 
   42500    301.89832    244.08167   -3136.0556   -2687.0048    482.17928    12077.112 
   42550    305.73423    244.20883   -3140.2942   -2685.5377    359.07307    12080.823 
   42600    291.59865    243.77417   -3125.8058   -2692.0749    819.49745    12084.609 
   42650    283.30052    243.48296   -3116.0986   -2694.7105    1131.9074    12088.685 
   42700    282.47161    243.43185    -3114.395   -2694.2399    1096.7782    12093.218 
   42750    289.52068    243.80072   -3126.6907   -2696.0506    615.99293    12098.191 
   42800    296.70859    243.97472   -3132.4907   -2691.1592    282.60374    12103.378 
   42850    289.39578     243.7359     -3124.53   -2694.0757    432.18025    12108.616 
   42900    290.60907    243.73348   -3124.4494   -2692.1905    318.00342     12113.95 
   42950    282.60658    243.50133    -3116.711   -2696.3551    477.75224    12119.349 
   43000    277.63356    243.26626   -3108.8754   -2695.9166     653.6098    12124.886 
   43050    280.54717    243.28949   -3109.6496   -2692.3569    572.40595    12130.653 
   43100    289.45011    243.67963   -3122.6542   -2692.1191    207.34308    12136.585 
   43150    291.63567    243.76469   -3125.4896   -2691.7036    1.8794917     12142.52 
   43200    300.33149    244.09176   -3136.3919   -2689.6716   -412.03286    12148.316 
   43250    284.00334    243.44782   -3114.9272   -2692.4937    141.68883    12153.814 
   43300    276.22277    243.22035   -3107.3451   -2696.4846    363.07944    12159.244 
   43350    279.83916    243.42045   -3114.0149   -2697.7754     110.0435    12164.723 
   43400    282.05803    243.36947   -3112.3158   -2692.7759    70.396362    12170.146 
   43450    285.34632    243.42862   -3114.2872   -2689.8562   -74.885961    12175.479 
   43500    276.08095    243.11773   -3103.9243   -2693.2748    65.507496    12180.661 
   43550    290.16899    243.60138    -3120.046   -2688.4416   -400.49459    12185.697 
   43600    289.58684    243.56621   -3118.8736   -2688.1351   -342.53835    12190.423 
   43650    288.38234      243.405      -3113.5   -2684.5531   -229.46369    12194.833 
   43700    276.60371    242.99034   -3099.6781    -2688.251    123.26791    12199.008 
   43750    280.83775    243.06585   -3102.1949   -2684.4701   -61.264313    12203.086 
   43800    296.04512    243.62034   -3120.6779   -2680.3332   -552.62785    12206.968 
   43850    291.41677    243.37682   -3112.5608   -2679.1004   -323.12692     12210.45 
   43900     290.6213    243.34325   -3111.4417   -2679.1646   -304.36426    12213.602 
   43950    299.92235    243.60681    -3120.227   -2674.1153   -608.71864    12216.414 
   44000    281.36854    242.89508   -3096.5027   -2677.9883   -12.025168    12218.801 
   44050    281.90433    242.95765   -3098.5883    -2679.277    28.424342    12220.986 
   44100    280.84759    242.85869   -3095.2895     -2677.55    80.569529    12223.049 
[...]
   89400    296.24543     255.3024     -3010.08   -2569.4374    826.88455    12427.452 
   89450    291.81024    255.21635   -3007.2116    -2573.166    823.28543    12435.755 
   89500    305.78207    255.66257   -3022.0856   -2567.2579    250.05175    12444.362 
   89550    302.78807    255.70845    -3023.615   -2573.2407    64.723377    12453.012 
   89600    299.94477    255.57915   -3019.3049   -2573.1598   -56.807446    12461.579 
   89650     300.0779    255.55512    -3018.504   -2572.1608   -128.18771    12469.999 
   89700     297.5344    255.44961    -3014.987   -2572.4271    -49.98734    12478.233 
   89750    286.20416    255.09726    -3003.242    -2577.535    210.04043    12486.337 
   89800    293.73605    255.33296   -3011.0986   -2574.1885   -104.45576     12494.41 
   89850    290.42224    255.30893   -3010.2978   -2578.3167   -149.44271    12502.333 
   89900    288.20285    255.26984   -3008.9946   -2580.3147   -195.04347    12510.038 
   89950    286.28439    255.14169   -3004.7231   -2578.8968   -198.73574    12517.523 
   90000    295.34209    255.43152    -3014.384    -2575.085    -519.1661    12524.768 
   90050    306.40671    255.91917   -3030.6388   -2574.8821   -825.35064    12531.578 
   90100    291.85119    255.37487   -3012.4955    -2578.389   -326.38931     12537.84 
   90150    292.79353    255.42745   -3014.2482     -2578.74   -361.52785    12543.754 
   90200     285.3904    255.10699   -3003.5663   -2579.0697   -72.390977    12549.358 
   90250    284.23735    254.98647    -2999.549   -2576.7675    35.732269    12554.781 
   90300    284.72873    255.11472    -3003.824   -2580.3116     -186.208    12560.083 
   90350    289.19794    255.33157   -3011.0522   -2580.8922   -541.30232     12565.13 
   90400     286.6918    255.10763   -3003.5876   -2577.1553    -451.2172    12569.766 
   90450    275.93806     254.6597   -2988.6566   -2578.2196   -82.486558    12574.032 
   90500    282.93188    254.92423   -2997.4744   -2576.6346   -387.35259    12578.083 
   90550    286.03588    255.05983   -3001.9945   -2576.5378   -557.13667    12581.801 
   90600    285.37595    255.03414   -3001.1382   -2576.6631   -585.33731    12585.078 
   90650    282.38021    254.99094    -2999.698   -2579.6789   -563.65166    12587.886 
   90700    291.41106    255.17151   -3005.7169    -2572.265    -835.9832    12590.228 
   90750    289.88972    255.10931   -3003.6436   -2572.4546   -855.24066    12591.976 
   90800    274.33254    254.42327   -2980.7758   -2572.7269   -339.51436    12593.138 
   90850    292.73767     255.0895   -3002.9834   -2567.5583    -885.5167    12593.898 
   90900    286.74973    254.90994   -2996.9979   -2570.4794   -758.06507    12594.058 
   90950     288.0509     254.7988   -2993.2932   -2564.8393   -744.21847    12593.629 
   91000    289.90838    254.79217   -2993.0723   -2561.8555   -685.80705    12592.631 
   91050    293.83242    259.78349    -2992.783   -2555.7295   -661.41524    12591.094 
   91100    297.13206    259.94963    -2998.321   -2556.3596   -718.79074    12589.042 
   91150    294.45516    259.83194   -2994.3979   -2556.4182    -566.0954    12586.456 
   91200    290.36411    259.61237    -2987.079   -2555.1844   -337.39408    12583.415 
   91250    292.59438     259.5884     -2986.28   -2551.0681    -367.2831    12580.033 
   91300     290.0851    259.49521   -2983.1735   -2551.6939   -212.81911    12576.317 
   91350    285.66799    259.23778   -2974.5928   -2549.6833    112.68238    12572.376 
   91400    300.81909    259.75764   -2991.9212   -2544.4756   -270.57348    12568.332 
   91450     307.3352    259.89342   -2996.4473   -2539.3095   -303.66348    12563.999 
   91500    296.78226    259.43344   -2981.1147   -2539.6736    270.97172    12559.385 
   91550    288.70928    259.10425   -2970.1418   -2540.7086    692.86459    12554.796 
   91600    297.51596    259.47865   -2982.6215   -2540.0891    460.37807    12550.436 
   91650    299.90113    259.55194   -2985.0646   -2538.9844     403.3277    12546.229 
   91700    300.28004    259.47565   -2982.5216   -2535.8778    527.38379    12542.134 
   91750    304.76028    259.59639   -2986.5464   -2533.2386    515.24204    12538.197 
   91800    294.29638    259.13252   -2971.0839   -2533.3404    816.11999    12534.443 
   91850    307.03653     259.5467   -2984.8901   -2528.1966    324.22494    12530.974 
   91900    316.10789    259.88176   -2996.0586   -2525.8721    115.45784    12527.583 
   91950    305.98822    259.59517   -2986.5058   -2531.3715    520.94575    12524.169 
   92000    310.99113    259.73844   -2991.2812   -2528.7055    588.80924    12520.891 
   92050     293.1592    259.02736   -2967.5787   -2531.5266      1335.32    12517.882 
   92100    301.77261    259.29384   -2976.4614   -2527.5975     1071.061    12515.442 
   92150    307.32387      259.535   -2984.4998   -2527.3789    841.16973    12513.489 
   92200    315.50164    259.76178   -2992.0593   -2522.7745    579.01253    12511.884 
   92250     325.0616    260.09371   -3003.1238   -2519.6193    241.96316    12510.466 
   92300    310.72555    259.51083   -2983.6944   -2521.5137     663.4421    12509.111 
   92350    305.95765    259.26953   -2975.6509    -2520.562    821.55135    12507.976 
   92400    298.26114    258.99177   -2966.3924   -2522.7516    1068.7983     12507.19 
   92450    308.36978    259.46389   -2982.1296    -2523.453     747.1137    12506.861 
   92500    314.97484    259.68071   -2989.3569   -2520.8557    446.81583     12506.84 
   92550    308.80589    259.50578   -2983.5259   -2524.2005    601.36719    12506.959 
   92600    317.13673    259.77091   -2992.3636   -2520.6467    455.07145    12507.257 
   92650    302.24484    259.33526    -2977.842   -2528.2758    974.29638    12507.751 
   92700    314.40222    259.66498   -2988.8327   -2521.1833    678.22207    12508.622 
   92750    313.70347    259.67446   -2989.1486   -2522.5384    689.75909    12509.778 
   92800    300.65341    259.26486   -2975.4953   -2528.2961    1037.3293     12511.22 
   92850     303.7572    259.35651   -2978.5504   -2526.7346    831.90884    12513.104 
   92900    311.99765    259.71443   -2990.4809    -2526.408    510.50756    12515.344 
   92950    296.40586    259.21328   -2973.7759   -2532.8946    971.51384    12517.798 
   93000    301.76555    259.41409   -2980.4697   -2531.6163    733.84153    12520.642 
   93050    313.65796    264.83308   -2994.4361   -2527.8936    178.38561    12523.793 
   93100    309.49554    264.65417   -2988.4724   -2528.1213    269.77063    12526.969 
   93150    294.30358    263.98831   -2966.2771   -2528.5229    795.84789    12530.235 
   93200    293.42805    264.00665   -2966.8883   -2530.4363    804.45848    12533.841 
   93250    309.77298    264.64972    -2988.324   -2527.5602    219.02467    12537.779 
   93300    308.46353    264.55265   -2985.0882   -2526.2721    219.02245    12541.791 
   93350    302.04082    264.37854   -2979.2848    -2530.022    436.20693    12545.838 
   93400    301.36007    264.43879   -2981.2929   -2533.0426    401.13786    12550.026 
   93450    303.90291    264.57912   -2985.9706    -2533.938    253.72673    12554.332 
   93500    298.01728    264.36063   -2978.6878   -2535.4096    386.23089    12558.714 
   93550    293.76248    264.22565   -2974.1882   -2537.2388    326.87212     12563.23 
   93600    298.24738    264.36615   -2978.8716   -2535.2512    49.214824    12567.831 
   93650    292.56557    264.18139   -2972.7128   -2537.5437    95.582707    12572.395 
   93700    299.98362    264.34894   -2978.2981   -2532.0952   -158.18807    12576.908 
   93750    299.34352    264.38518    -2979.506   -2534.2551   -57.614391    12581.252 
   93800    288.73497     263.9625   -2965.4167   -2535.9453    266.12486    12585.492 
   93850    297.13449    264.48653   -2982.8843   -2540.9192   -250.15794    12589.739 
   93900    296.22864      264.435   -2981.1667    -2540.549   -340.11077    12593.776 
   93950     286.4241    264.07655   -2969.2184   -2543.1843   -98.352418     12597.55 
   94000     302.8187    264.65976   -2988.6586   -2538.2387    -603.8511    12601.129 
   94050    304.25608    264.74253   -2991.4178   -2538.8599   -682.11768      12604.3 
   94100    295.70321    264.44887   -2981.6291    -2541.793   -507.46949    12606.998 
   94150    304.37118    264.79837   -2993.2789   -2540.5499   -773.60727    12609.258 
   94200    296.44438     264.5075   -2983.5833   -2542.6448   -432.36942    12611.011 
   94250    293.24126    264.44249   -2981.4163   -2545.2421   -244.88284    12612.386 
   94300    282.16395    264.01186   -2967.0621   -2547.3646    220.93671    12613.539 
   94350      275.591    263.74014   -2958.0046   -2548.0839    482.30641    12614.713 
   94400    282.49876    263.97043   -2965.6811   -2545.4856    198.68352    12616.027 
   94450    289.85896    264.25935   -2975.3116   -2544.1683   -171.78771    12617.365 
   94500    290.62468    264.21656   -2973.8854   -2541.6032   -340.41732    12618.514 
   94550    293.06597    264.34906   -2978.3019   -2542.3885    -480.4816    12619.346 
   94600    286.96076     264.1877   -2972.9233    -2546.091   -251.71985    12619.816 
   94650     289.9037    264.25426   -2975.1418   -2543.9321   -263.38798    12620.007 
   94700    277.58823     263.8017   -2960.0566   -2547.1652    103.47267    12619.973 
   94750    288.46291    264.13787   -2971.2622   -2542.1955   -289.77642    12619.837 
   94800    293.67157     264.3433     -2978.11   -2541.2958    -522.3423    12619.445 
   94850     297.9264    264.57259   -2985.7529   -2542.6099   -691.81955    12618.637 
   94900    294.23262    264.36561   -2978.8536   -2541.2049   -497.92357    12617.328 
   94950    291.69685    264.23383   -2974.4611   -2540.5842     -319.738    12615.606 
   95000    290.20179    264.26597   -2975.5324   -2543.8792   -248.48701    12613.577 
   95050    290.91023    264.25483    -2975.161   -2542.4541   -177.45389    12611.283 
   95100    289.49372    264.19983   -2973.3277   -2542.7277    -47.06589    12608.757 
   95150    300.66266    264.51279   -2983.7596   -2536.5467   -352.70261    12606.069 
   95200    305.75967    264.65052   -2988.3508   -2533.5565   -540.31442    12603.065 
   95250      303.326    264.58911   -2986.3036   -2535.1291   -452.95828    12599.625 
   95300     300.8108    264.41946   -2980.6486   -2533.2153    -213.0688    12595.792 
   95350    293.27792    264.14906   -2971.6355   -2535.4068    156.71722     12591.71 
   95400    304.10219    264.45384   -2981.7947   -2529.4657   -49.774091    12587.565 
   95450    298.17351    264.19915   -2973.3049   -2529.7944    308.38315    12583.292 
   95500    300.44331    264.23679   -2974.5597    -2527.673    365.50431     12579.04 
   95550    305.03032    264.43727   -2981.2423   -2527.5328    256.67687    12574.863 
   95600     303.3207    264.28988   -2976.3293   -2525.1628    374.73338    12570.708 
   95650    304.92179    264.31136   -2977.0453   -2523.4972    269.94606    12566.623 
   95700     306.9629    264.34926   -2978.3086   -2521.7246    181.78617    12562.564 
   95750    294.30983    263.85366   -2961.7887   -2524.0251    607.84278    12558.513 
   95800    314.86829    264.57063   -2985.6876   -2517.3448    58.712719    12554.603 
   95850    308.40886    264.30471   -2976.8235   -2518.0887    375.02255     12550.66 
   95900     313.6632    264.32025   -2977.3418   -2510.7915    308.67104    12546.769 
   95950     317.5867    264.53756   -2984.5854   -2512.1992     258.0657    12542.908 
   96000    300.57848    263.82584   -2960.8613   -2513.7736    1036.7459    12539.107 
   96050    301.14489    263.96832   -2965.6108   -2517.6806    1115.7814    12535.724 
   96100    303.81623    264.09132   -2969.7106    -2517.807    997.37849    12532.872 
   96150    317.27569    264.48514   -2982.8379   -2510.9144    480.56085    12530.444 
   96200    319.19468    264.46029   -2982.0096   -2507.2317    404.18215    12528.179 
   96250    311.98733    264.09292    -2969.764   -2505.7065    813.51199    12526.049 
   96300    325.26484    264.51058   -2983.6861   -2499.8793    603.97878    12524.216 
   96350    322.08483    264.32508   -2977.5025   -2498.4257    777.95001    12522.645 
   96400     321.4984    264.34598   -2978.1994   -2499.9949    750.26888    12521.373 
   96450    318.28171    264.21687   -2973.8957   -2500.4758    868.82686    12520.421 
   96500    325.49383    264.41127   -2980.3757   -2496.2283    725.36032    12519.829 
   96550    323.31523    264.38746   -2979.5821   -2498.6752    841.49237    12519.554 
   96600    312.43443    263.96373   -2965.4576   -2500.7351    1203.2088    12519.663 
   96650    313.81765    264.01346   -2967.1154   -2500.3354    1206.9952     12520.32 
   96700    302.48997    263.64586    -2954.862   -2504.9311    1475.4858    12521.593 
   96750    319.81245     264.3216   -2977.3866   -2501.6898    733.52743    12523.537 
   96800    320.16486    264.32249   -2977.4164   -2501.1954    658.20782     12525.86 
   96850    315.01717    264.16272   -2972.0905   -2503.5264    809.29068    12528.471 
   96900    320.19746    264.35726   -2978.5753   -2502.3058    587.52686     12531.43 
   96950    325.17054    264.54031   -2984.6771   -2501.0106    399.42432    12534.643 
   97000    320.67906    264.33674   -2977.8912   -2500.9054    529.15928    12538.025 
   97050    328.90251    264.63077   -2987.6923   -2498.4747    266.94832    12541.595 
   97100    317.68248    264.32371   -2977.4572   -2504.9285    566.96709    12545.252 
   97150    310.38309    264.05606   -2968.5355   -2506.8641    680.13715    12549.144 
   97200    314.39147    264.29133   -2976.3777   -2508.7443    369.49679    12553.306 
   97250    305.29213     264.0455   -2968.1833   -2514.0843    585.88433    12557.627 
   97300    300.28371    263.81978   -2960.6592   -2514.0099    769.92351    12562.203 
   97350    312.07494    264.32203   -2977.4009   -2513.2131    338.28269    12567.098 
   97400    297.88451    263.84056    -2961.352   -2518.2714     729.6574    12572.183 
   97450     307.5882    264.13618   -2971.2061    -2513.692    333.87773     12577.55 
   97500    318.47675    264.60305   -2986.7682   -2513.0582   -114.72579    12583.039 
   97550    303.55833    264.09344   -2969.7814   -2518.2614    309.74566    12588.453 
   97600    303.72509    264.23556   -2974.5187   -2522.7506    164.18678    12593.921 
   97650    313.53452    264.50035   -2983.3449   -2516.9861   -302.53649      12599.4 
   97700    318.19635    264.83728    -2994.576    -2521.283   -707.92469    12604.637 
   97750    307.06863    264.39614   -2979.8712   -2523.1299    -458.1653    12609.429 
   97800    305.38389    264.47907   -2982.6358   -2528.4004   -591.24179    12613.845 
   97850    308.96331    264.57497   -2985.8322   -2526.2727   -821.20103    12617.829 
   97900    304.00007    264.46384   -2982.1278   -2529.9508   -651.45309     12621.27 
   97950    290.03084    264.08228   -2969.4094   -2538.0105   -185.30113    12624.271 
   98000    285.20166    263.90056    -2963.352   -2539.1362   -10.456833    12627.059 
   98050    289.21826    264.21432   -2973.8107   -2543.6205   -237.70079    12629.741 
   98100    296.11004    264.45604    -2981.868   -2541.4268   -397.23608    12632.208 
   98150     295.7641    264.41801   -2980.6002   -2540.6735   -372.26944     12634.36 
   98200    299.26752    264.49336   -2983.1121   -2537.9743   -614.21166    12636.181 
   98250    306.43208    264.88057    -2996.019   -2540.2245   -1031.3175    12637.527 
   98300    301.63968    264.70186   -2990.0619   -2541.3957   -989.54657    12638.197 
   98350    293.35195    264.41937   -2980.6456   -2544.3068   -786.12005    12638.182 
   98400    288.43404    264.25868   -2975.2893   -2546.2655    -617.0334    12637.585 
   98450    281.95025     263.9576   -2965.2533   -2545.8737   -366.55853    12636.526 
   98500    292.74802    264.35518    -2978.506   -2543.0655   -702.91673    12635.102 
   98550    295.52212    264.52293   -2984.0977   -2544.5309   -857.45634     12633.16 
   98600    291.64078    264.38378   -2979.4594   -2545.6659   -785.57471    12630.605 
   98650    285.50893    264.05559   -2968.5198   -2543.8468   -526.47484    12627.482 
   98700    284.48915    264.05933   -2968.6444   -2545.4883   -351.41376    12623.909 
   98750    290.88246    264.32358   -2977.4527   -2544.7871   -500.78376    12619.995 
   98800    298.46104    264.63394   -2987.7981   -2543.8599   -725.92398    12615.642 
   98850    285.80244    264.19871   -2973.2903   -2548.1808     -218.527    12610.762 
   98900    287.92305    264.29858   -2976.6194   -2548.3557   -197.31831    12605.575 
   98950    290.87632    264.37399   -2979.1328   -2546.4764   -245.50031    12600.131 
   99000    296.20441    264.66853   -2988.9509   -2548.3693    -477.2805    12594.376 
   99050    292.36984     264.4439   -2981.4634   -2546.5854   -375.75009     12588.22 
   99100     296.4642    264.58979   -2986.3262   -2545.3582   -482.41162    12581.677 
   99150    303.91688    264.87583    -2995.861   -2543.8076    -654.8149      12574.7 
   99200    302.59969    264.87718   -2995.9059   -2545.8118   -575.94422    12567.201 
   99250    304.26272    264.96088   -2998.6961   -2546.1284   -584.31654    12559.204 
   99300    309.87718     265.1987   -3006.6232   -2545.7043   -623.10573    12550.698 
   99350    293.24379    264.48074   -2982.6914   -2546.5135    112.21191    12541.717 
   99400    295.68288    264.55967   -2985.3223   -2545.5165     177.7637     12532.58 
   99450     283.6685    264.09937    -2969.979   -2548.0436    695.94852    12523.414 
   99500    289.83944    264.35048   -2978.3493   -2547.2351    565.89783    12514.453 
   99550    313.39944    265.19632   -3006.5441   -2540.3862   -139.11021    12505.618 
   99600     315.1202    265.31608   -3010.5358   -2541.8184   -83.299881     12496.57 
   99650    302.43652    264.94806   -2998.2686   -2548.4172    472.48231    12487.332 
   99700    296.91573    264.74377   -2991.4589   -2549.8192    740.77615    12478.184 
   99750    301.82269    264.94926   -2998.3085   -2549.3702    595.18654     12469.28 
   99800    306.55799    265.08233   -3002.7443   -2546.7625    432.75559    12460.563 
   99850    322.11477     265.7285   -3024.2835   -2545.1622   -68.580243     12451.89 
   99900    310.44907    265.28044   -3009.3479   -2547.5785     534.1151    12443.079 
   99950    300.76892    264.91023   -2997.0078   -2549.6368    1058.3988      12434.4 
  100000    301.83253    264.85301   -2995.1002   -2546.1472    1144.5456     12426.15 
Loop time of 27.019 on 1 procs for 100000 steps with 500 atoms

Performance: 319.775 ns/day, 0.075 hours/ns, 3701.102 timesteps/s
99.1% CPU use with 1 MPI tasks x 1 OpenMP threads

MPI task timing breakdown:
Section |  min time  |  avg time  |  max time  |%varavg| %total
---------------------------------------------------------------
Pair    | 21.956     | 21.956     | 21.956     |   0.0 | 81.26
Bond    | 0.0071516  | 0.0071516  | 0.0071516  |   0.0 |  0.03
Neigh   | 0.52768    | 0.52768    | 0.52768    |   0.0 |  1.95
Comm    | 0.78158    | 0.78158    | 0.78158    |   0.0 |  2.89
Output  | 0.018669   | 0.018669   | 0.018669   |   0.0 |  0.07
Modify  | 2.7561     | 2.7561     | 2.7561     |   0.0 | 10.20
Other   |            | 0.9719     |            |       |  3.60

Nlocal:    500 ave 500 max 500 min
Histogram: 1 0 0 0 0 0 0 0 0 0
Nghost:    1548 ave 1548 max 1548 min
Histogram: 1 0 0 0 0 0 0 0 0 0
Neighs:    14357 ave 14357 max 14357 min
Histogram: 1 0 0 0 0 0 0 0 0 0

Total # of neighbors = 14357
Ave neighs/atom = 28.714
Ave special neighs/atom = 0
Neighbor list builds = 635
Dangerous builds = 0

write_data      ${walker}/final_restart_file
write_data      9/final_restart_file

quit
