LAMMPS (19 May 2017)
Processor partition = 3
  using 1 OpenMP thread(s) per MPI task
# gREM variables
variable        lambda world 1000 1005 1010 1015 1020 1025 1030 1035 1040 1045 1050 1055 1060 1065 1070 1075
variable        walker world 0 1 2 3 4 5 6 7 8 9 10 11 12 13 14 15
variable        replica world 1 3 7 2 4 6 5 8 11 14 0 10 12 13 9 15

variable        T0 equal 300.0
variable        press equal 0.0

units           real
atom_style      full
pair_style      lj/cut 5.0

# LJ particles
read_data       ${walker}/restart_file
read_data       3/restart_file
  orthogonal box = (1.06237 1.06237 1.06237) to (23.9376 23.9376 23.9376)
  1 by 1 by 1 MPI processor grid
  reading atoms ...
  500 atoms
  reading velocities ...
  500 velocities
  0 = max # of 1-2 neighbors
  0 = max # of 1-3 neighbors
  0 = max # of 1-4 neighbors
  1 = max # of special neighbors

#dump            dump all xyz 1000 ${walker}/dump.xyz

fix             fxnpt all npt temp ${T0} ${T0} 1000.0 iso ${press} ${press} 10000.0
fix             fxnpt all npt temp 300 ${T0} 1000.0 iso ${press} ${press} 10000.0
fix             fxnpt all npt temp 300 300 1000.0 iso ${press} ${press} 10000.0
fix             fxnpt all npt temp 300 300 1000.0 iso 0 ${press} 10000.0
fix             fxnpt all npt temp 300 300 1000.0 iso 0 0 10000.0
fix             fxgREM all grem ${lambda} -.03 -30000 fxnpt
fix             fxgREM all grem 1015 -.03 -30000 fxnpt
thermo_modify   press fxgREM_press

thermo          50
thermo_style    custom step temp f_fxgREM pe etotal press vol
WARNING: New thermo_style command, previous thermo_modify settings will be lost (../output.cpp:705)
timestep        1.0

temper/grem     100000 1000 ${lambda} fxgREM fxnpt 10294 98392 ${walker}
temper/grem     100000 1000 1015 fxgREM fxnpt 10294 98392 ${walker}
temper/grem     100000 1000 1015 fxgREM fxnpt 10294 98392 3
Neighbor list info ...
  update every 1 steps, delay 10 steps, check yes
  max neighbors/atom: 2000, page size: 100000
  master list distance cutoff = 7
  ghost atom cutoff = 7
  binsize = 3.5, bins = 7 7 7
  1 neighbor lists, perpetual/occasional/extra = 1 0 0
  (1) pair lj/cut, perpetual
      attributes: half, newton on
      pair build: half/bin/newton
      stencil: half/bin/3d/newton
      bin: standard
Per MPI rank memory allocation (min/avg/max) = 5.723 | 5.723 | 5.723 Mbytes
Step Temp f_fxgREM PotEng TotEng Press Volume 
       0     288.6934    210.28406   -3176.1353   -2746.7258    718.38404    11970.115 
      50     302.0434    210.59072   -3186.3573   -2737.0907     361.2034     11970.17 
     100    303.21764    210.65025   -3188.3416   -2737.3283    304.63099    11970.172 
     150    299.59941    210.58011   -3186.0035   -2740.3721    368.08745    11970.061 
     200    300.91003    210.55372   -3185.1241   -2737.5432    300.76222    11969.876 
     250    304.00444    210.67027    -3189.009   -2736.8254    183.27119    11969.577 
     300    292.55313    210.31188   -3177.0626   -2741.9119    543.13529    11969.131 
     350    295.71472    210.42217    -3180.739   -2740.8858    447.04594    11968.671 
     400    285.15331    210.14553   -3171.5178   -2747.3738    733.39886    11968.219 
     450     282.3479    210.12508   -3170.8361    -2750.865    868.45173    11967.893 
     500    299.13526    210.64435   -3188.1451    -2743.204    347.54182    11967.726 
     550    307.14781    210.85726   -3195.2419   -2738.3829    20.417484    11967.493 
     600    304.42739    210.62371   -3187.4569   -2734.6443    194.74911    11967.025 
     650    295.08128    210.42403   -3180.8009   -2741.8899    535.48753    11966.401 
     700    284.28392    210.05196   -3168.3987   -2745.5479    826.17215    11965.803 
     750     313.8147     210.9758   -3199.1934   -2732.4178    -56.29898    11965.306 
     800    307.17672    210.72009   -3190.6695   -2733.7674    134.16878    11964.579 
     850    292.35529     210.2293     -3174.31   -2739.4537    529.92313    11963.664 
     900    305.95347    210.70602   -3190.2007   -2735.1181    145.15256    11962.725 
     950    281.77772    209.92552   -3164.1842   -2745.0612    940.76577    11961.659 
    1000    290.21775    210.24973   -3174.9909    -2743.314    757.45475    11960.776 
    1050    311.18851    205.86593   -3195.5309   -2732.6616    199.16705    11960.016 
    1100    303.72459    205.66006   -3188.6687   -2736.9014    460.55158    11959.113 
    1150    302.74141    205.56577   -3185.5257   -2735.2208    600.14388     11958.16 
    1200    304.10581    205.60967   -3186.9889   -2734.6545    480.36861    11957.231 
    1250    318.46932    206.05941   -3201.9804   -2728.2814    23.802402    11956.232 
    1300    306.45497    205.59616   -3186.5388   -2730.7103    350.79184    11955.028 
    1350    318.36393    205.89331   -3196.4436   -2722.9014    37.962762    11953.669 
    1400    295.51278     205.2907   -3176.3565   -2736.8036    718.04876    11952.074 
    1450    291.34588    205.15206   -3171.7352   -2738.3803    909.81776    11950.555 
    1500    329.22184    206.32127   -3210.7089   -2721.0163   -47.716174     11949.17 
    1550    297.96279    205.31324   -3177.1081   -2733.9111    907.73587    11947.576 
    1600    304.56196    205.53857   -3184.6189    -2731.606    719.37287    11946.115 
    1650    317.43004    205.87193   -3195.7311    -2723.578    349.79255    11944.757 
    1700    302.57438    205.48109    -3182.703   -2732.6465    762.71486    11943.328 
    1750    300.59665    205.46418   -3182.1394   -2735.0247    895.19684    11941.998 
    1800    307.65879    205.65167   -3188.3891   -2730.7699     794.7725    11940.842 
    1850    315.51297    205.82408    -3194.136   -2724.8344    615.03858    11939.823 
    1900     315.6325    205.74506    -3191.502   -2722.0225     643.9427     11938.85 
    1950    320.30346    205.87035   -3195.6785   -2719.2513    496.36482    11937.887 
    2000    313.20538    205.76016   -3192.0052    -2726.136    688.10977    11936.906 
    2050    312.25692    210.72469   -3190.8232   -2726.3647     771.7078    11935.985 
    2100     302.5499     210.4834   -3182.7799   -2732.7598    992.26086    11935.207 
    2150     301.1249    210.45473   -3181.8243   -2733.9239    981.32907    11934.662 
    2200    299.84587    210.36726   -3178.9088   -2732.9108    1050.8489    11934.383 
    2250    315.03529    210.75578   -3191.8593   -2723.2681    615.29278    11934.365 
    2300    309.86895    210.66629   -3188.8764   -2727.9698    748.81921    11934.432 
    2350    315.10671    210.70753   -3190.2509   -2721.5535    729.70484    11934.602 
    2400    293.84557    210.00392   -3166.7973   -2729.7242    1310.9431    11934.933 
    2450    299.98466    210.12962   -3170.9872   -2724.7827    1166.2107    11935.646 
    2500    293.99739    210.02598   -3167.5326   -2730.2338    1229.0627    11936.713 
    2550    298.77356    210.20714   -3173.5712   -2729.1682    1129.2284    11938.133 
    2600    295.68257    210.20515   -3173.5052   -2733.6997    1206.6615    11939.908 
    2650    319.00845    210.87953   -3195.9844   -2721.4835    477.70218    11942.011 
    2700    312.99653    210.67281   -3189.0936    -2723.535    622.90113    11944.135 
    2750    292.88584    210.11035    -3170.345   -2734.6995    1169.5918    11946.336 
    2800     307.8896    210.48079   -3182.6929   -2724.7305    743.95081    11948.835 
    2850    309.76395    210.49648   -3183.2161   -2722.4657    594.59734    11951.484 
    2900    304.37591    210.41277   -3180.4256   -2727.6895    671.95771    11954.172 
    2950    304.44225    210.39484    -3179.828   -2726.9932    648.65887     11956.93 
    3000    292.82856    210.02418   -3167.4726   -2731.9124    912.07859    11959.796 
    3050     296.8713    210.13868   -3171.2893   -2729.7157    816.66981    11962.858 
    3100    309.26313     210.5302   -3184.3399   -2724.3345    448.19528    11966.075 
    3150    306.15359     210.4774   -3182.5799   -2727.1997    506.63939    11969.291 
    3200    294.59676    210.16962   -3172.3205   -2734.1302    783.44236    11972.508 
    3250     290.9972    210.01607   -3167.2022   -2734.3659    859.29959    11975.869 
    3300    290.31262    209.97602   -3165.8674   -2734.0493    830.31022    11979.434 
    3350    305.14728    210.43994   -3181.3313   -2727.4479    295.08321    11983.147 
    3400    295.68107    210.23088   -3174.3625   -2734.5593    461.78519    11986.802 
    3450    301.90283    210.44191    -3181.397   -2732.3395    323.03269    11990.414 
    3500    300.40376    210.43918   -3181.3059   -2734.4781    361.83267    11993.959 
    3550    292.37779    210.13396   -3171.1321   -2736.2423    575.45602    11997.444 
    3600    303.35162     210.4108   -3180.3601   -2729.1476    205.50273    12000.939 
    3650    289.60025    209.99748   -3166.5825   -2735.8241    535.89058    12004.325 
    3700    299.00288    210.29945   -3176.6484   -2731.9043    229.70047    12007.706 
    3750    317.13946    210.85169   -3195.0563   -2723.3354   -326.22281    12010.937 
    3800    296.09122    210.19911   -3173.3036   -2732.8903    296.88106    12013.779 
    3850    299.82916    210.37399    -3179.133   -2733.1598    78.681406    12016.474 
    3900    293.00337    210.17117   -3172.3724   -2736.5521    30.834615    12018.973 
    3950    288.23617     210.0438   -3168.1268   -2739.3973    86.852108    12021.234 
    4000    302.28876    210.49225   -3183.0749   -2733.4432   -324.48778    12023.249 
    4050    299.52803    210.46643   -3182.2142    -2736.689   -349.45113    12024.854 
    4100    284.76306    209.89172   -3163.0573   -2739.4938    44.536187    12026.046 
    4150    292.50883     210.2203   -3174.0101   -2738.9253   -144.01721    12026.966 
    4200    307.26271    210.59831   -3186.6102   -2729.5803    -560.2927    12027.554 
    4250    304.29133    210.62825   -3187.6082   -2734.9979   -554.34028    12027.591 
    4300    294.57795     210.3332   -3177.7732   -2739.6108   -279.13432    12027.085 
    4350    296.35537    210.31127   -3177.0425   -2736.2363   -251.26321    12026.151 
    4400     286.6926      209.982   -3166.0667   -2739.6332    131.01172    12024.836 
    4450    285.41064    210.06676   -3168.8921   -2744.3654    161.91995    12023.317 
    4500    299.51549    210.45011   -3181.6704   -2736.1639   -231.13251    12021.593 
    4550    297.90854    210.46469   -3182.1562   -2739.0399   -213.31426    12019.499 
    4600    282.66903    210.03645   -3167.8815   -2747.4328     225.2729    12017.045 
    4650    289.96405    210.23566   -3174.5218   -2743.2223   -3.6235591     12014.41 
    4700    299.32365    210.45523    -3181.841   -2736.6197   -248.20778    12011.512 
    4750    289.89735    210.16197   -3172.0657   -2740.8653    89.787452    12008.248 
    4800    298.57117    210.33838   -3177.9459    -2733.844   -73.815445    12004.742 
    4850     305.3168    210.64829   -3188.2764   -2734.1408   -282.41597    12000.912 
    4900    297.98362    210.42348   -3180.7826   -2737.5546    5.4255741    11996.672 
    4950    287.95184    210.05842   -3168.6141   -2740.3076    418.03492    11992.169 
    5000    291.27594    210.16765   -3172.2549    -2739.004    404.20459    11987.607 
    5050     300.1061    210.46787   -3182.2623   -2735.8772    176.47554    11982.997 
    5100    310.28569    210.83086   -3194.3619   -2732.8355   -52.582512    11978.191 
    5150    304.99417    210.76954    -3192.318   -2738.6623    119.62214    11973.095 
    5200    288.03314    210.27152   -3175.7174   -2747.2899    688.98943    11967.808 
    5250    302.44194    210.60788   -3186.9295     -2737.07    437.67943    11962.564 
    5300    298.85598     210.4953   -3183.1766   -2738.6509    584.23677      11957.3 
    5350    299.71097     210.5647   -3185.4901   -2739.6928    602.26544    11952.048 
    5400    289.27546    210.25205   -3175.0683    -2744.793    934.59047    11946.865 
    5450    299.46652    210.56375   -3185.4582   -2740.0245    761.65068    11941.856 
    5500    310.92156    210.83622   -3194.5407   -2732.0684    501.15214    11936.982 
    5550     315.9478    211.09073   -3203.0243   -2733.0759    341.27945    11932.091 
    5600    294.53056    210.40292   -3180.0973   -2742.0054    979.44678    11927.144 
    5650    300.98229    210.61912   -3187.3042   -2739.6158    941.26071     11922.39 
    5700    306.71967    210.71806   -3190.6021   -2734.3798    948.62121    11917.863 
    5750    304.14867    210.67967   -3189.3222   -2736.9241    1014.5445    11913.555 
    5800     314.3721    211.02377   -3200.7924   -2733.1877    708.80299    11909.483 
    5850    300.02099    210.52782   -3184.2606   -2738.0022    1113.6618    11905.561 
    5900    302.79373    210.56039   -3185.3462   -2734.9635    1127.9499    11901.919 
    5950    319.56894    211.12414   -3204.1381   -2728.8035    700.96794     11898.56 
    6000    302.07169    210.58771   -3186.2571   -2736.9484    1306.4376    11895.346 
    6050    296.38526    215.46144   -3182.0479   -2741.1973    1486.3649     11892.51 
    6100    309.85802    215.97769   -3199.2563    -2738.366    987.69525    11890.158 
    6150    297.83663    215.52735    -3184.245   -2741.2356    1348.9259    11888.114 
    6200    299.60047    215.59051   -3186.3504   -2740.7174    1379.3454    11886.484 
    6250    291.04934    215.35033   -3178.3443   -2745.4304    1652.5103     11885.35 
    6300    297.66879    215.46145   -3182.0483   -2739.2886    1553.7711    11884.808 
    6350    297.67704    215.47919   -3182.6396   -2739.8676    1503.3875    11884.818 
    6400    300.85133     215.5668   -3185.5598   -2738.0663    1361.0859    11885.364 
    6450    312.65753    215.90475   -3196.8249   -2731.7705    989.12181     11886.33 
    6500    285.81373    215.09183   -3169.7278   -2744.6015    1708.0675     11887.62 
    6550    303.49078    215.72857   -3190.9524   -2739.5328     1171.772    11889.487 
    6600    314.32684    215.97347   -3199.1156   -2731.5783    945.74379    11891.738 
    6650    291.29556     215.2839   -3176.1301   -2742.8501    1605.2005    11894.276 
    6700     296.3964    215.44505   -3181.5016   -2740.6344    1357.4677    11897.351 
    6750    296.33151    215.50703   -3183.5675   -2742.7968    1258.7383    11900.919 
    6800    306.83601    215.81702   -3193.9006   -2737.5053    998.34004     11904.89 
    6850    290.96926    215.27425   -3175.8084   -2743.0137    1404.3808    11909.193 
    6900    309.71376    215.93177   -3197.7255   -2737.0498    780.41517    11913.917 
    6950    302.54918    215.68772   -3189.5906   -2739.5716    827.01871    11918.853 
    7000    289.47348    215.31092   -3177.0306   -2746.4608    1130.2225    11924.008 
    7050     295.9171    215.50718   -3183.5725   -2743.4183    865.59922    11929.504 
    7100    307.85019    215.80752   -3193.5839   -2735.6801    455.68989    11935.207 
    7150     311.6569    215.91937   -3197.3124   -2733.7463    353.52431    11940.933 
    7200    297.10909    215.50707    -3183.569   -2741.6417     761.4053    11946.635 
    7250    294.93433    215.47711   -3182.5703   -2743.8778    665.22317     11952.47 
    7300     298.4762    215.58984    -3186.328   -2742.3673    447.23274    11958.427 
    7350    289.45465     215.2604   -3175.3468   -2744.8049    713.15873    11964.409 
    7400    289.25902    215.24071   -3174.6902   -2744.4393    634.07899     11970.53 
    7450     305.0783    215.77539    -3192.513   -2738.7321    77.402751    11976.734 
    7500    288.95472    215.18797   -3172.9325   -2743.1342    420.48425    11982.803 
    7550    288.12523    215.12163   -3170.7209   -2742.1564    353.04659    11988.841 
    7600    297.41782    215.39702   -3179.9007   -2737.5143    103.45841    11994.833 
    7650    285.71931    215.06659   -3168.8865   -2743.9006    417.08778    12000.679 
    7700    296.00745    215.36006   -3178.6687     -2738.38    73.304025    12006.473 
    7750    296.72292     215.3569   -3178.5632   -2737.2104   -36.630495    12012.103 
    7800    291.49078    215.19824   -3173.2746   -2739.7042    88.210045    12017.476 
    7850     280.5902    214.98006   -3166.0019   -2748.6452    247.20374    12022.669 
    7900    288.47037    215.20177   -3173.3923   -2744.3145   -123.54216    12027.755 
    7950    290.29235    215.15944   -3171.9814   -2740.1936   -215.30125    12032.569 
    8000    294.90483    215.24803   -3174.9342   -2736.2856   -329.00438     12037.02 
    8050    291.12382    215.18881   -3172.9603   -2739.9357   -291.41257    12041.086 
    8100    297.23005    215.30605   -3176.8685   -2734.7613   -457.95665    12044.738 
    8150    274.63096      214.631   -3154.3667    -2745.874    66.841737     12047.95 
    8200    277.91911    214.66991   -3155.6635   -2742.2799   -12.818701    12050.943 
    8250    288.68598    214.99791    -3166.597   -2737.1985   -298.27132    12053.687 
    8300    297.13666    215.19351   -3173.1171   -2731.1488   -569.47776    12056.041 
    8350    296.11568    215.20579   -3173.5263   -2733.0767   -530.95696    12057.852 
    8400    292.03689    215.01754   -3167.2513   -2732.8686    -411.3476    12059.145 
    8450    301.38204    215.30696   -3176.8988   -2728.6158   -617.88168    12059.954 
    8500    284.22812    214.75263   -3158.4211   -2735.6533    31.773944    12060.234 
    8550    286.42779    214.83871   -3161.2902   -2735.2505    15.919079    12060.245 
    8600    295.63023    215.09798   -3169.9327   -2730.2051   -182.34508    12059.996 
    8650    283.58097    214.52275   -3150.7584   -2728.9532    239.98775     12059.45 
    8700    298.28028    214.92142   -3164.0472   -2720.3779    -133.3565    12058.727 
    8750    300.81289    215.09949   -3169.9829   -2722.5465   -191.68492    12057.702 
    8800    299.94717    214.99919   -3166.6397   -2720.4911   -93.733789    12056.348 
    8850    306.20343    215.13018   -3171.0061   -2715.5517   -115.79875    12054.669 
    8900    295.45996    214.71948   -3157.3158   -2717.8415    255.99709    12052.684 
    8950    304.15203     214.9857   -3166.1901    -2713.787    16.751147     12050.54 
    9000    298.87457    214.68006    -3156.002   -2711.4487    193.27417    12048.184 
    9050    313.57342    210.14986   -3171.6618   -2705.2451   -198.01455    12045.612 
    9100     299.7063     209.7224   -3157.4132   -2711.6228    257.61489    12042.701 
    9150    301.91854    209.71633   -3157.2109     -2708.13     342.6826    12039.624 
    9200    309.30499    209.98706   -3166.2355   -2706.1677     208.6738    12036.441 
    9250    311.41201    210.04403   -3168.1344   -2704.9326    250.44451     12033.08 
    9300    303.70754    209.77027    -3159.009   -2707.2671    486.84344    12029.591 
    9350    307.15942    209.79505    -3159.835   -2702.9587    475.76948    12026.066 
    9400     319.4342    210.15276   -3171.7586   -2696.6244    189.49553    12022.491 
    9450     309.0404    209.80168    -3160.056   -2700.3819    469.30686    12018.776 
    9500    304.98894    209.64745   -3154.9149    -2701.267    681.69408    12015.012 
    9550    315.71923     210.0154   -3167.1801   -2697.5717    435.59223     12011.29 
    9600    316.81511    210.03408   -3167.8025    -2696.564    471.64401    12007.519 
    9650    310.76082     209.8602   -3162.0068   -2699.7736    728.15517    12003.714 
    9700    312.27045    209.92087    -3164.029   -2699.5504    714.63064    11999.968 
    9750    310.50863     209.8259   -3160.8634   -2699.0053    781.41019    11996.319 
    9800    317.31779    209.93354   -3164.4514   -2692.4652    687.16912    11992.799 
    9850    315.00942    209.88153   -3162.7177   -2694.1651     749.2262    11989.359 
    9900    323.35146    210.22442   -3174.1472   -2693.1864    551.73371    11985.996 
    9950    307.24519    209.71992   -3157.3306   -2700.3267    1117.8692    11982.683 
   10000    308.09329    209.70655   -3156.8849   -2698.6195    1182.7235    11979.629 
   10050     307.9157    214.82013   -3160.6709   -2702.6696    1107.2215    11976.915 
   10100    315.26495    215.11681   -3170.5602   -2701.6275    898.37525     11974.51 
   10150    309.55754    214.89984    -3163.328   -2702.8846    1161.1815    11972.326 
   10200    309.44117    214.84308   -3161.4361   -2701.1658    1226.3204    11970.469 
   10250    311.68263    214.83222    -3161.074   -2697.4697    1253.5601    11968.992 
   10300    319.56124    215.07466   -3169.1552   -2693.8321    1041.9645    11967.893 
   10350    323.15393    215.25904   -3175.3012   -2694.6342     803.0446    11967.066 
   10400    307.69501    214.90352   -3163.4508   -2705.7778     1198.154    11966.435 
   10450    316.71395    215.08842   -3169.6139   -2698.5259    1035.2507    11966.138 
   10500    309.66702    214.93164   -3164.3879   -2703.7817    1165.5892     11966.14 
   10550     316.1062    215.16513   -3172.1711   -2701.9871    891.10986    11966.453 
   10600    307.84504    214.88698   -3162.8992   -2705.0031    1041.1899    11967.008 
   10650    305.15233    214.79596   -3159.8653   -2705.9743    1114.5345    11967.851 
   10700    309.42933     214.9914   -3166.3798   -2706.1272    964.45676    11969.026 
   10750    320.16484    215.48766    -3182.922   -2706.7011    516.21212    11970.427 
   10800    302.31904    214.86172   -3162.0572   -2712.3805    981.52796     11971.89 
   10850     312.9553    215.18302   -3172.7674   -2707.2701    687.53816    11973.573 
   10900    309.24677    215.11444   -3170.4812   -2710.5001    678.39783    11975.391 
   10950    300.94559    214.95435    -3165.145   -2717.5113    759.20652     11977.31 
   11000    306.13377    215.21776   -3173.9253   -2718.5745    521.30484     11979.35 
   11050    310.36002    210.34815   -3178.2716   -2716.6346    412.56029    11981.415 
   11100    305.85123    210.21343    -3173.781   -2718.8504     522.5304    11983.452 
   11150    294.85406    209.93456   -3164.4854   -2725.9123    763.70015    11985.509 
   11200    295.60433    210.01194   -3167.0646   -2727.3755    656.46052    11987.699 
   11250    295.43853    209.92082   -3164.0273   -2724.5849    624.34158    11989.995 
   11300    303.35439    210.19049   -3173.0165   -2721.7998     375.4878    11992.355 
   11350    304.65557    210.25282   -3175.0941    -2721.942    315.14508    11994.676 
   11400    303.43353    210.26281   -3175.4269   -2724.0925    305.47852    11996.907 
   11450    295.94212    210.12617   -3170.8723   -2730.6808    449.17428    11999.064 
   11500    294.59482    210.04517   -3168.1723   -2729.9849    441.43034    12001.196 
   11550    295.08726    210.17293   -3172.4311   -2733.5111    250.57319    12003.302 
   11600    302.98646    210.49108   -3183.0359   -2732.3665   -66.948193    12005.273 
   11650    298.67041    210.38224   -3179.4081   -2735.1585    75.566216    12006.984 
   11700    303.25084    210.49133   -3183.0443   -2731.9817   -3.2845201    12008.471 
   11750    300.22512    210.40448   -3180.1494   -2733.5873    13.480834    12009.711 
   11800    288.25166    209.97326   -3165.7753   -2737.0228    292.46128    12010.723 
   11850    309.29027     210.6433   -3188.1099   -2728.0641    -353.5469    12011.569 
   11900    297.68748    210.29226   -3176.4087   -2733.6212   -103.94222    12012.018 
   11950    290.81192    210.15483   -3171.8278   -2739.2671    80.371178    12012.144 
   12000    298.20264    210.25235   -3175.0782   -2731.5244   -50.812146    12012.047 
   12050    291.84312    215.00894   -3166.9647   -2732.8702    182.16044    12011.692 
   12100    287.70545    214.95701   -3165.2338   -2737.2938    268.71233    12011.171 
   12150    292.03146     215.1819   -3172.7301   -2738.3555    196.40906    12010.529 
   12200     292.9059    215.20407   -3173.4689   -2737.7936    106.80164    12009.741 
   12250    290.09858    215.07164   -3169.0546    -2737.555    189.67354    12008.775 
   12300    288.39726    215.05574   -3168.5247   -2739.5557    277.55204    12007.681 
   12350    291.86343     215.2314   -3174.3801   -2740.2554    120.93161    12006.466 
   12400    293.80208    215.31381   -3177.1272   -2740.1188    74.043429    12005.052 
   12450    303.51492    215.60939   -3186.9796   -2735.5242   -112.65766     12003.41 
   12500    296.92364    215.30782   -3176.9275   -2735.2761    189.44832    12001.482 
   12550    292.07829    215.16071   -3172.0236   -2737.5792    411.90613    11999.381 
   12600     296.8807    215.36915   -3178.9717   -2737.3842    269.67701    11997.207 
   12650    300.31951     215.5101   -3183.6699   -2736.9673    112.96267    11994.925 
   12700    296.46822     215.3387   -3177.9567   -2736.9827    284.21665    11992.453 
   12750    287.18323     215.0248   -3167.4934   -2740.3301    606.57711    11989.852 
   12800     283.7556     214.8965   -3163.2168   -2741.1518    729.62094    11987.302 
   12850    304.97778    215.57911   -3185.9703    -2732.339    181.91849    11984.838 
   12900    300.84756    215.40321    -3180.107    -2732.619    373.01981    11982.243 
   12950    293.10815    215.10046   -3170.0153   -2734.0391    704.30121    11979.574 
   13000    296.26828    215.19692   -3173.2306   -2732.5539    623.03077        11977 
   13050    295.84917    215.10736   -3170.2454   -2730.1922    677.59581    11974.512 
   13100    300.19657     215.3755   -3179.1835   -2732.6639    533.81566    11972.093 
   13150    285.16784    214.86922   -3162.3073   -2738.1418    952.37515    11969.726 
   13200    296.19928    215.17955   -3172.6516   -2732.0776    762.00397    11967.553 
   13250    290.26827    215.04875   -3168.2917   -2736.5396    980.35313    11965.546 
   13300    290.70863    215.07367   -3169.1222   -2736.7151    985.13718    11963.774 
   13350     298.7557    215.24985   -3174.9949   -2730.6185    781.85128    11962.257 
   13400    310.28084    215.66798   -3188.9325   -2727.4133    372.23116    11960.879 
   13450    318.07814    215.82611   -3194.2036   -2721.0865    198.10749     11959.45 
   13500    314.44446    215.77423   -3192.4743    -2724.762    310.36338    11957.867 
   13550    303.69347     215.4808   -3182.6933   -2730.9723    628.38285    11956.186 
   13600    297.99034    215.26728   -3175.5758   -2732.3378    903.27265    11954.563 
   13650     294.1253    215.18369   -3172.7898   -2735.3007    999.34384     11953.14 
   13700    304.84726    215.42477   -3180.8255   -2727.3883    712.03841    11951.946 
   13750    295.42941     215.1037   -3170.1232   -2730.6943     984.9109    11950.913 
   13800    310.84482    215.54223   -3184.7411    -2722.383    635.07903    11950.092 
   13850     304.0198    215.28927   -3176.3091   -2724.1027    908.02788    11949.371 
   13900    294.89542    214.96797   -3165.5989   -2726.9643    1241.6825    11948.863 
   13950    284.66074    214.74102   -3158.0341   -2734.6229    1485.9233    11948.751 
   14000    293.65671    215.01625   -3167.2083   -2730.4162    1152.7736    11949.166 
   14050    314.87741    215.62251   -3187.4169   -2719.0607    586.50113    11949.939 
   14100    301.59968    215.25936   -3175.3121   -2726.7055    976.37887    11950.814 
   14150    303.04144    215.29782   -3176.5939   -2725.8427    894.52289    11951.927 
   14200    321.49922    215.92167   -3197.3892   -2719.1834    259.43997    11953.225 
   14250    306.44555    215.41417   -3180.4723   -2724.6578    685.69301    11954.456 
   14300    282.95271    214.81304   -3160.4345   -2739.5638    1365.8975    11955.806 
   14350    291.28576    214.89288   -3163.0962   -2729.8307    1211.4333    11957.605 
   14400    291.45942    214.90266    -3163.422   -2729.8982    1097.1364    11959.835 
   14450    301.54345    215.28316   -3176.1053   -2727.5822    724.20051    11962.388 
   14500    310.77122    215.56877   -3185.6256   -2723.3769    439.94058    11965.089 
   14550    298.74532    215.15859    -3171.953    -2727.592    734.12475    11967.819 
   14600    301.32126    215.29127   -3176.3758   -2728.1833    623.10607    11970.664 
   14650    298.89636     215.1137   -3170.4567   -2725.8711    725.12667    11973.648 
   14700    306.88069    215.32338   -3177.4462   -2720.9844    516.69335    11976.777 
   14750    302.89083    215.24445   -3174.8151   -2724.2879    611.47256    11979.957 
   14800    302.76638    215.20283   -3173.4277   -2723.0857    599.77826    11983.245 
   14850    305.54631    215.17003   -3172.3344   -2717.8574    483.48771    11986.637 
   14900    312.28797    215.41398   -3180.4661   -2715.9614    346.40131    11990.033 
   14950    284.95142    214.51385   -3150.4618   -2726.6181    1086.7906    11993.448 
   15000    296.06464    214.88048   -3162.6828   -2722.3091    655.25825    11997.154 
   15050    299.98642    214.98237   -3166.0789   -2719.8718    543.67809    12001.024 
   15100    302.41207    215.09399   -3169.7997   -2719.9847    453.45161    12004.959 
   15150    310.51835    215.30653   -3176.8843   -2715.0118    240.70451    12008.905 
   15200    289.76817    214.60411   -3153.4703   -2722.4621    896.74783    12012.816 
   15250    295.24455    214.82934   -3160.9779    -2721.824     670.1136    12016.936 
   15300    298.41388     214.8778   -3162.5932   -2718.7252    515.90986    12021.228 
   15350    303.98745    215.04645   -3168.2149   -2716.0566    416.56169     12025.57 
   15400    297.27097    214.80952   -3160.3172   -2718.1492    542.21358    12029.946 
   15450    312.61755    215.23403   -3174.4677   -2709.4728    105.09427    12034.359 
   15500    302.43866    214.81358   -3160.4528   -2710.5982    469.43219    12038.644 
   15550    292.71503    214.47161   -3149.0538   -2713.6624    799.33237     12042.97 
   15600    301.19788    214.59721   -3153.2403   -2705.2313    582.84108    12047.498 
   15650    314.86131    214.96253   -3165.4176   -2697.0853    207.11291    12052.105 
   15700    300.59298    214.54276   -3151.4254   -2704.3161    543.75491    12056.652 
   15750    302.15475    214.60833    -3153.611   -2704.1787    410.93155    12061.259 
   15800    299.14622    214.39701   -3146.5671   -2701.6097    422.15135    12065.926 
   15850    310.36072    214.56837    -3152.279   -2690.6409    181.50005    12070.587 
   15900    303.00296    214.37016   -3145.6719   -2694.9779    432.06652    12075.146 
   15950    306.29735    214.41704   -3147.2345   -2691.6404    348.84266     12079.71 
   16000    309.82209    214.52263   -3150.7543   -2689.9174    156.49392    12084.241 
   16050    306.77265    214.36419   -3145.4729   -2689.1719    191.53557    12088.659 
   16100    315.01241    214.68582   -3156.1939   -2687.6368   -87.929599    12092.936 
   16150    313.85398    214.48005   -3149.3349   -2682.5009    7.9336637    12096.951 
   16200    300.89641    214.02178   -3134.0592   -2686.4986    365.22896    12100.769 
   16250     313.8285    214.40059   -3146.6863   -2679.8902      17.9804    12104.526 
   16300    313.47161     214.3736   -3145.7868   -2679.5216   -99.266357     12108.09 
   16350    319.78971    214.44318   -3148.1061   -2672.4431   -221.83549    12111.372 
   16400    308.62182    214.07427   -3135.8089   -2676.7573     133.4628    12114.327 
   16450    309.00353    214.04062   -3134.6873    -2675.068    94.930562    12117.103 
   16500    309.37033    214.07509   -3135.8362   -2675.6713    103.39632    12119.702 
   16550    313.44814    214.17854   -3139.2848   -2673.0544    20.022487    12122.112 
   16600    308.11876    213.98084   -3132.6946   -2674.3913    144.62622    12124.321 
   16650    305.94512      213.929   -3130.9666   -2675.8965    230.82647    12126.355 
   16700    308.21489    213.99668   -3133.2226   -2674.7763    198.74328    12128.261 
   16750    306.56861    213.96841   -3132.2805   -2676.2829    204.04605    12130.039 
   16800    316.11278    214.26633   -3142.2111   -2672.0173   -47.806748    12131.669 
   16850    310.27863    214.03709   -3134.5697   -2673.0537    108.36738    12133.058 
   16900    319.43574    214.27602    -3142.534   -2667.3975   -125.14011    12134.211 
   16950    314.17444    214.12138   -3137.3793   -2670.0686   -56.414534    12135.067 
   17000    320.05024    214.30068   -3143.3559   -2667.3054   -183.66852    12135.612 
   17050    317.49855    214.22275   -3140.7582   -2668.5032   -163.65223    12135.799 
   17100    323.31619    214.44246   -3148.0819   -2667.1736   -370.23908    12135.609 
   17150    317.68157    214.34444   -3144.8147   -2672.2875   -167.01146    12134.954 
   17200    294.76663    213.53304   -3117.7681   -2679.3251    551.35622    12133.976 
   17250     302.6506    213.82312   -3127.4373   -2677.2674    359.31959    12132.974 
   17300    318.62703    214.31723   -3143.9077   -2669.9742   -184.97877    12131.882 
   17350    313.78564    214.16771   -3138.9237   -2672.1913   -132.10569    12130.434 
   17400    299.76107    213.79105   -3126.3684   -2680.4965    254.76197    12128.641 
   17450      311.927     214.1895   -3139.6502   -2675.6824   -77.736827    12126.659 
   17500    298.07108    213.74201   -3124.7337   -2681.3756    320.35459    12124.387 
   17550    285.46568    213.45949   -3115.3165   -2690.7079    648.27392    12122.001 
   17600    316.58029    214.39394   -3146.4646   -2675.5755   -199.94095    12119.627 
   17650    326.99788    214.73115   -3157.7051   -2671.3205   -453.16261    12116.873 
   17700    317.42989    214.39187   -3146.3958   -2674.2429   -78.615323     12113.59 
   17750    305.30748    214.13185   -3137.7282   -2683.6065    228.07561    12109.956 
   17800    305.26925    214.21832   -3140.6107   -2686.5458    170.59588    12106.127 
   17850    307.51924    214.20218   -3140.0726    -2682.661    177.42557    12102.095 
   17900    316.97885    214.60874   -3153.6245   -2682.1425    -3.379683    12097.827 
   17950    306.80733     214.3342   -3144.4734   -2688.1207    357.73372    12093.267 
   18000     300.7248    214.15348   -3138.4494    -2691.144    467.31613    12088.583 
   18050    321.53089    219.82446   -3160.8154   -2682.5626   -173.56496    12083.791 
   18100    308.55342    219.49076   -3149.6922   -2690.7423    174.85943    12078.655 
   18150    306.68763    219.44636   -3148.2122   -2692.0375    247.34867    12073.299 
   18200    290.61478    218.99357   -3133.1192   -2700.8517    726.56402    12067.805 
   18250    290.03358    219.10204   -3136.7346   -2705.3316    764.43644    12062.367 
   18300    298.69065    219.32269   -3144.0895   -2699.8098      538.118     12057.02 
   18350    289.93797    219.15933   -3138.6442   -2707.3834    693.72993    12051.695 
   18400    298.14394    219.44273   -3148.0909   -2704.6244    477.41992    12046.403 
   18450    296.58069    219.46891   -3148.9638   -2707.8224    558.09529     12041.08 
   18500    307.92376    219.92103   -3164.0342    -2706.021    301.01446    12035.737 
   18550    308.01777    219.92791   -3164.2637   -2706.1106    382.07273     12030.27 
   18600    297.71889    219.58603   -3152.8675   -2710.0333    795.38566    12024.713 
   18650     298.2979      219.619   -3153.9666   -2710.2711    765.48495    12019.265 
   18700    295.49313    219.62812   -3154.2706    -2714.747    833.36714    12013.926 
   18750    299.77971    219.77071   -3159.0236    -2713.124    829.34771     12008.71 
   18800    305.76101    219.99172   -3166.3907   -2711.5943    673.16199    12003.642 
   18850    317.88685    220.35614   -3178.5381   -2705.7055    409.97217    11998.613 
   18900     296.6071    219.75588   -3158.5295   -2717.3489    962.96932    11993.555 
   18950    306.11834    220.07298   -3169.0994   -2713.7716    670.32229     11988.66 
   19000    316.21924    220.45102   -3181.7005   -2711.3484    444.10143    11983.814 
   19050     288.0038     219.6225   -3154.0833   -2725.6994    1207.6911    11978.975 
   19100    309.81776    220.31732   -3177.2441   -2716.4137    537.34846    11974.399 
   19150    300.50174    220.09183   -3169.7277   -2722.7541    771.94634    11969.882 
   19200    289.99538    219.84384   -3161.4612   -2730.1151     1125.741    11965.481 
   19250    294.41789    220.02899    -3167.633   -2729.7087    995.16862     11961.37 
   19300     303.9395    220.38827   -3179.6089   -2727.5219    711.63641    11957.488 
   19350    299.62636    220.24973   -3174.9909   -2729.3194    882.51749    11953.717 
   19400     292.2023    219.99533   -3166.5109   -2731.8821    1148.6654    11950.151 
   19450    298.51423    220.25186   -3175.0619   -2731.0446    1010.4782    11946.892 
   19500    285.29529    219.85113   -3161.7043   -2737.3492    1444.9733    11943.935 
   19550     300.3218    220.32923    -3177.641   -2730.9351    1030.0861    11941.416 
   19600    298.90699    220.21758   -3173.9194   -2729.3179    1106.5246    11939.209 
   19650    299.95864    220.32009   -3177.3362   -2731.1705    1079.2405    11937.314 
   19700    307.25434    220.46189    -3182.063   -2725.0454    928.95028    11935.716 
   19750    304.80022    220.44637   -3181.5456   -2728.1784    997.03796    11934.353 
   19800    306.93725    220.49914   -3183.3046   -2726.7587    928.28916     11933.25 
   19850    302.11039    220.30423   -3176.8078   -2727.4415    1062.4151    11932.401 
   19900    301.16933    220.22119   -3174.0398   -2726.0732    1175.9531    11931.854 
   19950    296.62642       220.17   -3172.3335   -2731.1242    1353.7612    11931.677 
   20000    294.88905    220.11088   -3170.3628   -2731.7376    1358.8042    11931.978 
   20050    312.04604    215.65038   -3188.3462   -2724.2013    747.13929    11932.708 
   20100     296.5725    215.21629   -3173.8762   -2732.7471    1190.5371    11933.629 
   20150    298.90195    215.30529    -3176.843    -2732.249    1238.9333    11934.895 
   20200    295.56885     215.1965   -3173.2165   -2733.5803    1306.7757    11936.589 
   20250    294.01745    215.16814   -3172.2715   -2734.9428    1322.7734    11938.723 
   20300    300.20357    215.37088   -3179.0293   -2732.4993    1052.0011    11941.318 
   20350    309.33659    215.60468   -3186.8225   -2726.7078    742.84236    11944.233 
   20400     282.4952     214.7705   -3159.0167   -2738.8265     1442.639    11947.379 
   20450    306.43843    215.54043   -3184.6809   -2728.8769    660.86541    11950.965 
   20500    303.05363     215.4945     -3183.15   -2732.3807    617.81148    11954.743 
   20550    311.72573    215.64646   -3188.2152   -2724.5468    385.51347    11958.609 
   20600     289.0056    214.95981   -3165.3269    -2735.453    964.92237    11962.504 
   20650    294.27907    215.21993   -3173.9976   -2736.2798    727.61685     11966.67 
   20700    315.62277     215.8559   -3195.1966   -2725.7317    195.14617    11970.986 
   20750     296.9612    215.17614   -3172.5381   -2730.8308    795.93439    11975.253 
   20800    292.93035    215.14327   -3171.4423   -2735.7306    872.01872      11979.7 
   20850    283.44798    214.87624   -3162.5415   -2740.9341    1095.9114     11984.42 
   20900    292.87165    215.10505   -3170.1682   -2734.5438    799.58979     11989.51 
   20950    297.43978    215.23183   -3174.3943   -2731.9752    547.35939    11994.827 
   21000    302.31322    215.36401   -3178.8003   -2729.1323    320.09739    12000.227 
   21050    295.65514     210.2182     -3173.94   -2734.1754    366.91022    12005.617 
   21100    294.87223    210.14535   -3171.5118   -2732.9117    357.46455    12010.977 
   21150    297.51903    210.25757   -3175.2523   -2732.7153    176.31544    12016.311 
   21200    292.85689    210.08913   -3169.6378   -2734.0353    239.85179    12021.549 
   21250     302.2405     210.3391   -3177.9702   -2728.4103   -56.171221    12026.668 
   21300    293.96007    210.01288    -3167.096   -2729.8526    133.97334    12031.564 
   21350    294.70029    210.05118   -3168.3726   -2730.0283   -10.210121    12036.288 
   21400    301.83522    210.29542   -3176.5138   -2727.5568   -300.01587    12040.772 
   21450     280.8756    209.68197   -3156.0656   -2738.2844    214.63194    12044.918 
   21500    290.76396    209.93513   -3164.5042   -2732.0149   -70.861757    12048.906 
   21550    291.82082    210.00086   -3166.6953    -2732.634   -162.88398    12052.647 
   21600    302.87266    210.36951   -3178.9837   -2728.4835   -460.52026    12056.046 
   21650    293.45992    209.99127   -3166.3756   -2729.8762   -171.73771    12059.008 
   21700    308.32844    210.46199   -3182.0665   -2723.4513   -544.52386    12061.592 
   21750     303.8044    210.22353   -3174.1175   -2722.2315   -418.68148    12063.656 
   21800    297.30949    210.10204   -3170.0679   -2727.8426   -299.58932    12065.232 
   21850    288.29406    209.76713   -3158.9045   -2730.0889    3.2729287    12066.416 
   21900    303.62561    210.18646    -3172.882   -2721.2619   -349.34936    12067.307 
   21950    300.52382    210.08372   -3169.4574    -2722.451   -276.57711    12067.783 
   22000    300.41368    210.07421   -3169.1402   -2722.2976   -194.46369    12067.827 
   22050    288.25661     214.5953   -3153.1766   -2724.4167    216.97229    12067.531 
   22100    293.80943    214.73498   -3157.8326   -2720.8133    38.619274    12067.062 
   22150    292.24213    214.69147   -3156.3824   -2721.6944   -2.1901755    12066.385 
   22200    297.96975    214.88965   -3162.9884   -2719.7809   -119.94562    12065.433 
   22250    297.29892    214.80625   -3160.2082   -2717.9986   -42.649993    12064.166 
   22300    298.14121    214.90648   -3163.5493   -2720.0869   -56.186656    12062.601 
   22350     295.5195    214.76749   -3158.9164   -2719.3535     47.20801    12060.757 
   22400    307.21032    215.04288    -3168.096   -2711.1439   -226.34017    12058.651 
   22450    293.48517    214.60698   -3153.5659   -2717.0289    248.70487    12056.195 
   22500    289.18427    214.37959   -3145.9862   -2715.8466    473.56908    12053.577 
   22550    311.74486    215.00531   -3166.8437   -2703.1468    -6.831725    12050.895 
   22600    316.66505    215.12027   -3170.6756   -2699.6603    28.954142    12047.953 
   22650    296.77306    214.37327   -3145.7755   -2704.3481    718.26913     12044.77 
   22700    305.07431    214.71563   -3157.1877   -2703.4128    499.83746    12041.638 
   22750    313.14876    214.89522    -3163.174    -2697.389    305.75422    12038.499 
   22800    316.55097    214.95015   -3165.0049   -2694.1593    257.40363    12035.249 
   22850    308.67929    214.62661   -3154.2205   -2695.0834    637.06294    12031.867 
   22900    315.34649    214.75849   -3158.6163   -2689.5623    563.82261    12028.519 
   22950     308.9337     214.5366   -3151.2199   -2691.7044    788.61992    12025.216 
   23000    309.30845     214.5664   -3152.2133   -2692.1404    813.92738    12022.032 
   23050    322.13193    214.99478   -3166.4925   -2687.3457    445.33466    12018.984 
   23100     314.3577    214.78469   -3159.4896   -2691.9063    722.51553    12015.914 
   23150    304.19574    214.34081   -3144.6935   -2692.2254    1122.7352    12012.961 
   23200    315.90083    214.69473   -3156.4911   -2686.6126    870.16527    12010.287 
   23250    321.18206    214.86219   -3162.0731   -2684.3391    735.15494    12007.807 
   23300    311.95926    214.40096   -3146.6987    -2682.683    1085.9702    12005.455 
   23350    309.08684     214.3984   -3146.6133   -2686.8701    1244.8211    12003.374 
   23400    327.60905    214.95874   -3165.2914   -2677.9977    823.22722    12001.644 
   23450    321.57057    214.82561   -3160.8537   -2682.5418    1040.1186     12000.09 
   23500    303.48925    214.30471   -3143.4902   -2692.0729    1507.3206    11998.822 
   23550    318.39635    214.75517   -3158.5058   -2684.9153    1095.7973    11998.026 
   23600    319.12178    214.78382   -3159.4608   -2684.7914    1118.2679    11997.564 
   23650     321.3555    214.82075   -3160.6917   -2682.6998    982.71973    11997.411 
   23700    322.61802    214.79475   -3159.8249    -2679.955    874.66398    11997.506 
   23750    324.50859    214.84791   -3161.5969   -2678.9149    773.67235    11997.794 
   23800    317.46479    214.69485   -3156.4951   -2684.2903    1014.7879    11998.228 
   23850    310.59084    214.45118   -3148.3726   -2686.3923    1252.5984    11998.944 
   23900    328.31524    215.08635   -3169.5449   -2681.2008    711.89641    12000.021 
   23950     319.0238    214.76033   -3158.6777    -2684.154     1017.656    12001.248 
   24000    296.27812    214.07467   -3135.8225   -2695.1312    1596.0035     12002.77 
   24050    308.47635    214.47936    -3149.312   -2690.4768    1124.7065    12004.829 
   24100    305.15673    214.39458   -3146.4861   -2692.5886    1148.3194    12007.271 
   24150    316.51824    214.80318   -3160.1061   -2689.3092    783.01959    12010.036 
   24200    309.80779    214.56991   -3152.3305   -2691.5149    861.80856    12012.998 
   24250    307.32254    214.48067   -3149.3558   -2692.2368    902.84394    12016.178 
   24300    322.26299    214.94557   -3164.8522   -2685.5104    426.66092    12019.565 
   24350    313.52145    214.62546   -3154.1819   -2687.8425    584.61008    12022.972 
   24400    312.48392    214.60823   -3153.6077   -2688.8115     586.6602    12026.433 
   24450    313.20644    214.65294   -3155.0981   -2689.2273    451.19995    12029.958 
   24500    325.85392      215.184   -3172.8001   -2688.1171   -56.090911    12033.433 
   24550    297.07576     214.2906   -3143.0201   -2701.1424    699.35645    12036.717 
   24600    290.65737    214.20036   -3140.0121   -2707.6813    787.85516    12040.087 
   24650    277.40775    213.79453   -3126.4845   -2713.8615    1069.6227    12043.676 
   24700     303.6174    214.64234   -3154.7446   -2703.1367    330.29502    12047.546 
   24750      319.821    215.22093    -3174.031   -2698.3215   -76.171241    12051.371 
   24800    302.36734    214.65763   -3155.2542   -2705.5057    379.62245    12054.968 
   24850    307.87432    214.87073   -3162.3576   -2704.4179    126.22497    12058.475 
   24900    304.84172    214.84976   -3161.6586   -2708.2296    149.71867    12061.842 
   24950    305.53081    214.84802   -3161.6006   -2707.1466    101.73434    12065.063 
   25000    297.69918    214.56105    -3152.035   -2709.2301    232.32048    12068.104 
   25050    288.35049    214.28229   -3142.7431   -2713.8436    402.44897    12071.035 
   25100    306.71056    214.94038   -3164.6793   -2708.4706   -194.35655    12073.899 
   25150    305.94167    214.91972   -3163.9906   -2708.9255   -273.15904    12076.443 
   25200    306.64999    214.92987   -3164.3291   -2708.2105   -345.77321    12078.582 
   25250    303.49606    214.88693   -3162.8977   -2711.4703   -300.07964    12080.287 
   25300    289.50608    214.54723   -3151.5744   -2720.9561    85.125772    12081.601 
   25350    300.75102     214.8529   -3161.7634    -2714.419   -273.00367    12082.668 
   25400    303.99833    214.89825   -3163.2749   -2711.1004   -468.66993    12083.353 
   25450    298.63861    214.73453   -3157.8177   -2713.6154   -275.52198     12083.56 
   25500    302.34367    214.85969   -3161.9898   -2712.2765   -273.08685    12083.346 
   25550    288.41492     214.3928   -3146.4267   -2717.4314    116.67142    12082.756 
   25600    297.96739    214.78352   -3159.4507   -2716.2468   -188.79336     12081.94 
   25650    300.50136    214.82699   -3160.8997   -2713.9267   -260.85759    12080.797 
   25700    298.94913    214.81861   -3160.6205   -2715.9563   -345.55976    12079.261 
   25750    298.84898    214.84052   -3161.3506   -2716.8354   -375.90139    12077.278 
   25800    294.15755    214.68344   -3156.1147   -2718.5776   -86.962957    12074.845 
   25850    298.13316    214.80979   -3160.3264   -2716.8759   -146.22961    12072.098 
   25900    298.14284     214.7501   -3158.3367   -2714.8718    -130.3707    12069.011 
   25950    288.54355    214.47769   -3149.2565   -2720.0698    179.42503    12065.582 
   26000    292.30135     214.6139   -3153.7966   -2719.0205    89.062206    12061.961 
   26050    298.17404     214.7933   -3159.7766   -2716.2653    -23.70362    12058.123 
   26100    291.97447    214.56678   -3152.2259    -2717.936    211.18799    12054.028 
   26150    299.80671    214.88224   -3162.7415   -2716.8017    39.710106    12049.751 
   26200    296.70992    214.64733   -3154.9108   -2713.5773    227.35727    12045.248 
   26250    304.35672    214.94465   -3164.8215   -2712.1139     127.3131    12040.581 
   26300    308.18376    215.16852   -3172.2841   -2713.8841    67.914012    12035.702 
   26350    302.02909     215.0226   -3167.4201   -2718.1747    272.74959    12030.598 
   26400    295.36119    214.83286   -3161.0953    -2721.768    509.68484     12025.37 
   26450    296.53528    214.80986   -3160.3286   -2719.2549    526.41949    12020.132 
   26500    294.65285     214.7439     -3158.13   -2719.8562    615.27685    12014.917 
   26550    296.01946    214.80843    -3160.281   -2719.9745    585.59333    12009.746 
   26600    298.73378    214.92354    -3164.118   -2719.7742     511.1045    12004.615 
   26650    300.49354    214.92894   -3164.2981   -2717.3368    591.17414    11999.488 
   26700    311.72003    215.30085   -3176.6951   -2713.0352    377.16355    11994.387 
   26750    314.28381    215.41017   -3180.3391   -2712.8657    370.53786    11989.203 
   26800     290.6678    214.66658   -3155.5527   -2723.2064    1131.5974    11983.989 
   26850    301.39277     214.9764   -3165.8799    -2717.581    942.07362    11979.052 
   26900     304.8449    215.02656   -3167.5519   -2714.1182    921.21372    11974.352 
   26950    321.31014    215.57796    -3185.932   -2708.0075    496.92654    11969.837 
   27000    301.05505    214.92114   -3164.0379   -2716.2413    1141.4795    11965.365 
   27050    286.60253    214.54436   -3151.4788   -2725.1792    1521.8698    11961.213 
   27100    313.22471    215.34584   -3178.1947   -2712.2967    838.82124    11957.539 
   27150    302.31596    215.02359   -3167.4529   -2717.7808    1170.9748    11954.099 
   27200    305.07354    215.13952   -3171.3173   -2717.5435    1173.7845    11950.979 
   27250    301.56022    214.98444   -3166.1479   -2717.5999    1295.0159    11948.216 
   27300     296.5325    214.77698   -3159.2326    -2718.163    1417.1478    11945.889 
   27350    315.12902    215.36175   -3178.7249   -2709.9943    988.43363    11944.005 
   27400    303.84233    215.08716   -3169.5719   -2717.6295    1257.4748    11942.406 
   27450     301.1717    215.09313   -3169.7709   -2721.8008    1231.5672    11941.181 
   27500    308.22782    215.26089    -3175.363   -2716.8975    1083.1599    11940.358 
   27550     313.3095    215.41534   -3180.5113   -2714.4871    1042.1909    11939.841 
   27600    314.39223    215.39313    -3179.771   -2712.1364    1100.2916    11939.597 
   27650    305.25065    215.12872   -3170.9575   -2716.9202    1268.1456    11939.684 
   27700    304.11842    215.11043   -3170.3475   -2717.9944    1296.3251    11940.163 
   27750    299.55374    215.01922   -3167.3073   -2721.7438    1477.7658     11941.07 
   27800    306.96833    215.30882   -3176.9606   -2720.3685    1239.3182    11942.463 
   27850    296.89774    215.12723   -3170.9075   -2729.2946    1327.5617    11944.283 
   27900    298.70455    215.21566   -3173.8554    -2729.555    1109.8114    11946.533 
   27950    298.98624    215.16509   -3172.1695   -2727.4501    1058.1272     11949.14 
   28000    313.66992    215.62091   -3187.3637   -2720.8035    610.53638    11952.033 
   28050    308.75762    215.51111   -3183.7036     -2724.45    668.64894    11955.032 
   28100    297.48848    215.20733   -3173.5776   -2731.0861    826.17323    11958.155 
   28150    306.09023    215.56136   -3185.3788   -2730.0928    454.77292    11961.429 
   28200    290.65711    215.05211   -3168.4037   -2736.0733     943.5709    11964.748 
   28250     296.0392    215.23716   -3174.5719    -2734.236    746.60425    11968.283 
   28300    287.58009    215.00657   -3166.8856    -2739.132    758.37034    11972.012 
   28350    311.46626    215.69379    -3189.793   -2726.5105  -0.31262891    11975.854 
   28400     289.8442    215.01203   -3167.0678   -2735.9465    599.65025    11979.536 
   28450    290.37002    215.09809   -3169.9364    -2738.033    507.58832     11983.25 
   28500    307.55817    215.70278   -3190.0928   -2732.6233   -94.096124    11986.977 
   28550    294.64767    215.34464   -3178.1547   -2739.8886    215.36384    11990.475 
   28600    289.40472    215.22801   -3174.2668   -2743.7993    322.21894    11993.835 
   28650    299.31466     215.5925   -3186.4168   -2741.2089   -23.460439    11997.109 
   28700    279.16085    214.96604   -3165.5348   -2750.3042    495.87597    12000.201 
   28750    282.31332    215.00424   -3166.8079   -2746.8882    403.64521    12003.282 
   28800    293.83555    215.39167   -3179.7223   -2742.6642   -37.491254    12006.337 
   28850    290.40933    215.30363   -3176.7878   -2744.8259   -65.977079    12009.179 
   28900    308.04778    215.94702    -3198.234   -2740.0363   -616.92421    12011.692 
   28950    286.62756    215.41729   -3180.5765   -2754.2397   -42.726751      12013.7 
   29000    281.87394    215.23065   -3174.3548   -2755.0887    92.302345    12015.424 
   29050    281.35157    215.19303   -3173.1011   -2754.6119    19.551465    12016.954 
   29100    282.20983    215.21247   -3173.7491   -2753.9834   -120.46042    12018.275 
   29150    283.68891     215.3092   -3176.9733   -2755.0076   -220.30111    12019.301 
   29200    289.24687    215.55069   -3185.0229   -2754.7901   -385.42888    12019.951 
   29250    278.60662    215.20439   -3173.4797   -2759.0735   -163.62986    12020.191 
   29300    281.42161    215.26671   -3175.5569   -2756.9636   -238.69756    12020.088 
   29350     277.8021     215.1837     -3172.79   -2759.5804   -26.859202    12019.632 
   29400    269.36186    214.96266    -3165.422   -2764.7667     251.1127    12018.932 
   29450    290.53566      215.651   -3188.3667   -2756.2169   -391.42474    12018.077 
   29500    299.71305    215.83628   -3194.5428   -2748.7424   -625.25399      12016.8 
   29550     290.2029    215.55226   -3185.0752   -2753.4204   -357.63733    12014.963 
   29600    281.83908    215.33539   -3177.8463    -2758.632   -181.17149    12012.673 
   29650    287.35612     215.4665   -3182.2168   -2754.7963   -253.15123    12010.016 
   29700    262.19374    214.69165   -3156.3883    -2766.395    552.63569    12007.041 
   29750    295.42675    215.76886   -3192.2952   -2752.8703   -374.75544    12004.027 
   29800    295.45658    215.85274   -3195.0912    -2755.622   -336.73071    12000.616 
   29850    267.50654    214.95509   -3165.1696   -2767.2739    564.22694    11996.827 
   29900    292.96022    215.66455   -3188.8184   -2753.0622   -74.248188    11992.997 
   29950    288.02481    215.44877   -3181.6256   -2753.2105    97.976956    11988.914 
   30000     286.4632    215.45219   -3181.7398   -2755.6475    182.68014    11984.613 
   30050    273.26814    214.92482   -3164.1607   -2757.6951    626.72353    11980.195 
   30100    287.04785    215.38071   -3179.3571   -2752.3952    275.30125    11975.806 
   30150     283.8796    215.21264   -3173.7546   -2751.5052    479.95745    11971.356 
   30200    286.64209    215.28718   -3176.2394    -2749.881    453.38617    11966.889 
   30250    295.15358    215.58634   -3186.2114   -2747.1928    284.65216    11962.389 
   30300    284.50401    215.17125   -3172.3751    -2749.197    760.23086    11957.828 
   30350    305.35716    215.68365   -3189.4549   -2735.2593    389.29142     11953.35 
   30400    290.06549    215.23022   -3174.3406   -2742.8902    889.58335    11948.869 
   30450    293.09873    215.27509   -3175.8363   -2739.8742    932.16459    11944.554 
   30500    291.72129    215.04557   -3168.1855   -2734.2722    1109.7033    11940.485 
   30550    316.63678    215.80164    -3193.388   -2722.4148    500.11834    11936.692 
   30600    305.13748    215.43449   -3181.1498   -2727.2809    905.91829    11932.947 
   30650    298.34365    215.17921   -3172.6403   -2728.8767    1180.4659    11929.394 
   30700    294.46817    214.94201   -3164.7338   -2726.7347    1336.9599    11926.203 
   30750    313.35959    215.55618    -3185.206   -2719.1074    971.77568    11923.408 
   30800    300.44047    215.10917   -3170.3058   -2723.4234    1440.1265    11920.915 
   30850    305.97909    215.23711   -3174.5703   -2719.4496    1305.9954    11918.863 
   30900     321.4873    215.68519   -3189.5063   -2711.3183    864.39319    11917.211 
   30950    329.51618    215.88491   -3196.1637   -2706.0334    624.00357    11915.745 
   31000    316.84765    215.41715   -3180.5715   -2709.2847    1111.1228    11914.365 
   31050    305.91582    215.00874    -3166.958   -2711.9314    1592.3823    11913.292 
   31100    304.23525    214.95536   -3165.1787   -2712.6518    1683.2197    11912.777 
   31150    311.26577    215.15564   -3171.8547   -2708.8704     1539.506    11912.867 
   31200    308.61936    215.06932   -3168.9773   -2709.9294    1627.3503    11913.522 
   31250    306.92113    215.03566   -3167.8552   -2711.3333    1631.7084    11914.762 
   31300    315.33807    215.32449   -3177.4828   -2708.4414    1332.6591    11916.592 
   31350    313.69453    215.28161   -3176.0537   -2709.4569    1366.5448    11918.886 
   31400    299.85468     214.8601   -3162.0034   -2715.9923     1778.053    11921.642 
   31450    304.42363    214.94941   -3164.9802   -2712.1731    1594.6911    11925.055 
   31500     308.5997    215.00303   -3166.7676    -2707.749     1326.956    11929.065 
   31550    319.27879    215.35683   -3178.5609   -2703.6579     961.0512    11933.506 
   31600     316.1005    215.30942   -3176.9805    -2706.805     1049.663     11938.22 
   31650    316.11441    215.26452   -3175.4839   -2705.2877    999.71887    11943.221 
   31700    317.64882    215.28661   -3176.2202   -2703.7416     919.3248    11948.504 
   31750    308.94813    215.03499   -3167.8329    -2708.296    1145.4405    11954.042 
   31800    300.84432    214.79248   -3159.7495   -2712.2663    1244.5622    11959.936 
   31850    304.78351    214.93081   -3164.3602   -2711.0178    896.20671    11966.229 
   31900    311.09146    215.14909   -3171.6364   -2708.9115     643.6732    11972.763 
   31950    309.41384    214.97516   -3165.8387   -2705.6091    775.75504    11979.426 
   32000    313.39954     215.1259   -3170.8634   -2704.7054    524.62201    11986.244 
   32050    297.51697     219.6314     -3154.38   -2711.8461    836.21741    11993.152 
   32100    288.10743    219.44025   -3148.0084   -2719.4704    1122.5568    12000.265 
   32150    294.00942    219.61321   -3153.7736   -2716.4568    789.36072    12007.747 
   32200    314.39712    220.23074    -3174.358   -2706.7161    91.037996    12015.396 
   32250    287.45578    219.33799   -3144.5995   -2717.0308    865.72894    12022.959 
   32300     302.0268    219.90737    -3163.579   -2714.3371    260.17841    12030.693 
   32350    312.59772    220.28223   -3176.0743   -2711.1089   -240.61618    12038.368 
   32400    288.93416    219.49125   -3149.7083   -2719.9407    379.45437    12045.756 
   32450    292.85104    219.64894   -3154.9646   -2719.3708    143.38732    12053.082 
   32500    293.18261    219.69536   -3156.5121   -2720.4252     114.4714    12060.283 
   32550    274.19755    219.09158    -3136.386   -2728.5379    684.61291    12067.365 
   32600    286.48982    219.44576   -3148.1921   -2722.0602    237.31139    12074.565 
   32650    292.36093    219.78834   -3159.6113   -2724.7465   -175.42544    12081.689 
   32700    293.36738    219.68614   -3156.2047    -2719.843   -252.64392    12088.528 
   32750    294.62086    219.71331   -3157.1103    -2718.884   -321.61812    12095.018 
   32800    294.99206     219.6989   -3156.6299   -2717.8516   -497.88082    12101.112 
   32850    299.90497    219.84356   -3161.4521   -2715.3662   -791.89498    12106.708 
   32900    297.26863    219.73763   -3157.9211   -2715.7565   -699.87842    12111.661 
   32950    290.51192    219.53293   -3151.0977   -2718.9833   -561.02785    12116.028 
   33000    310.73857    220.16986   -3172.3288   -2710.1287   -1227.2143    12119.805 
   33050    282.32672    219.30859   -3143.6197   -2723.6801   -445.35554    12122.773 
   33100    289.38559    219.51057   -3150.3525   -2719.9133   -567.87189    12125.211 
   33150    289.06789    219.46573   -3148.8577   -2718.8912   -516.38158    12127.143 
   33200    292.15826    219.52672   -3150.8907   -2716.3275   -562.14627    12128.565 
   33250    284.39667    219.35439   -3145.1463   -2722.1278   -320.50361    12129.454 
   33300    280.43749    219.16635   -3138.8783   -2721.7488   -192.04546    12129.935 
   33350    282.39668    219.21902   -3140.6341   -2720.5904   -264.12991    12130.083 
   33400    282.14951    219.19272   -3139.7573   -2720.0812   -234.20499    12129.858 
   33450     299.5744    219.71619   -3157.2063    -2711.612   -689.54807    12129.247 
   33500    290.73342    219.40411   -3146.8036   -2714.3597   -485.62417    12128.068 
   33550    298.56201    219.58309   -3152.7696   -2708.6812    -628.3139    12126.358 
   33600    290.68889    219.30707   -3143.5689   -2711.1912   -284.71247    12124.094 
   33650    298.54268    219.55035   -3151.6784   -2707.6188   -474.54354    12121.403 
   33700    301.83406     219.6148   -3153.8268   -2704.8715   -533.10817     12118.22 
   33750    282.72435    218.91224   -3130.4079   -2709.8768    82.198427    12114.536 
   33800    292.63073    219.26724   -3142.2413   -2706.9753   -195.47928    12110.603 
   33850    297.42872    219.44801    -3148.267   -2705.8643   -297.87719    12106.333 
   33900    294.88552    219.37942   -3145.9806   -2707.3607   -123.64798    12101.667 
   33950    292.88157    219.25863   -3141.9545   -2706.3154    110.58739    12096.682 
   34000    297.02445    219.33193   -3144.3978   -2702.5964    126.93928    12091.506 
   34050    310.13396    224.72289   -3157.4298    -2696.129   -108.66577    12086.139 
   34100    299.27099    224.30954   -3143.6513   -2698.5084    263.34864    12080.507 
   34150    297.49129    224.23457   -3141.1524   -2698.6566    380.44401    12074.752 
   34200    296.80574    224.21114   -3140.3712   -2698.8951    572.76874    12068.977 
   34250    294.07881    224.08588    -3136.196    -2698.776    751.48652    12063.288 
   34300    308.52643    224.49313   -3149.7712   -2690.8615    412.88988    12057.723 
   34350    320.11334    224.82534   -3160.8447   -2684.7004    132.93945    12052.137 
   34400    313.87528    224.50224   -3150.0748   -2683.2091    364.31544      12046.4 
   34450    310.04572    224.38162    -3146.054   -2684.8845    622.13636    12040.593 
   34500    299.29181     223.9541   -3131.8033   -2686.6294    1101.1715    12034.901 
   34550    318.17522    224.52353   -3150.7844   -2677.5229     653.7209    12029.496 
   34600    316.74993    224.43083   -3147.6942   -2676.5527    800.44346    12024.228 
   34650    309.51886    224.20339   -3140.1131   -2679.7273    1104.5448    12019.151 
   34700    314.89537    224.38009   -3146.0029   -2677.6199    1090.9298     12014.39 
   34750    309.74979    224.24421   -3141.4738   -2680.7445    1298.4184    12009.981 
   34800    308.98418     224.2733   -3142.4432   -2682.8527    1299.6494    12005.998 
   34850    303.42451    224.08196   -3136.0652   -2684.7442     1562.656    12002.478 
   34900     304.0195    224.01033   -3133.6778   -2681.4718      1671.49    11999.554 
   34950    311.40627    224.23773   -3141.2576   -2678.0644    1487.7026    11997.251 
   35000    324.11809    224.72158   -3157.3861    -2675.285    1053.9514    11995.469 
   35050    320.06415     229.5513   -3151.7099   -2675.6387    1203.8024    11994.045 
   35100    302.49852    228.91343   -3130.4477   -2680.5041    1830.7653    11993.037 
   35150      303.782    228.93927    -3131.309   -2679.4563    1733.3604    11992.765 
   35200    315.81678    229.33282   -3144.4275    -2674.674    1309.7212     11993.17 
   35250    299.68846    228.85631   -3128.5435   -2682.7797    1789.7606    11994.102 
   35300    309.13934    229.14552   -3138.1841   -2678.3628    1566.4656    11995.734 
   35350    318.82413    229.35007   -3145.0025   -2670.7757    1352.3505     11997.97 
   35400    305.22223    228.94137    -3131.379   -2677.3841    1727.6674    12000.742 
   35450    308.03052    228.99898   -3133.2995   -2675.1274    1614.1382    12004.194 
   35500    314.62419    229.23055   -3141.0182   -2673.0386      1330.02    12008.285 
   35550    312.01092    229.17431   -3139.1435   -2675.0509    1394.8298    12012.898 
   35600    317.87709    229.41359   -3147.1197   -2674.3017    1255.0334    12018.027 
   35650    308.56557    229.05504    -3135.168   -2676.2001    1440.2005    12023.639 
   35700    315.95664    229.33447   -3144.4825   -2674.5209    1030.7788    12029.785 
   35750    322.45732    229.64857   -3154.9522   -2675.3214    706.98966    12036.287 
   35800    303.97409    229.01064   -3133.6878   -2681.5494    1205.3606    12043.029 
   35850    310.95414    229.25771   -3141.9237    -2679.403      929.218    12050.167 
   35900    304.49396    229.04777   -3134.9256   -2682.0139    1063.1078    12057.622 
   35950    299.08437    228.86626   -3128.8753   -2684.0099    1085.9603    12065.446 
   36000    303.48625    229.03372   -3134.4574   -2683.0446    774.32474    12073.621 
   36050    293.81035    233.72263   -3124.0877   -2687.0671    907.35717    12082.063 
   36100    309.32463    234.28229   -3142.7431   -2682.6461    353.87727    12090.773 
   36150    292.28099    233.74042   -3124.6806   -2689.9348    792.05364    12099.561 
   36200    286.73387    233.56986   -3118.9955   -2692.5006    765.43818    12108.577 
   36250    296.06569    233.81074   -3127.0245   -2686.6492      303.612    12117.805 
   36300    294.59367    233.72522   -3124.1739   -2685.9882    338.75025    12127.055 
   36350    285.77521    233.48964   -3116.3215   -2691.2525    525.19202    12136.318 
   36400    297.03633    233.86245   -3128.7484   -2686.9293     28.10954    12145.654 
   36450    296.21469     233.8677   -3128.9232   -2688.3263   -153.21694     12154.86 
   36500    305.56991    234.17873   -3139.2909   -2684.7788   -439.96602     12163.78 
   36550    293.04578    233.63407   -3121.1358   -2685.2524    -43.63798    12172.334 
   36600    294.86472    233.74934   -3124.9781   -2686.3891   -190.84286    12180.636 
   36650    286.30369    233.47122   -3115.7072   -2689.8522   -68.274507    12188.681 
   36700    287.65269    233.48768   -3116.2561   -2688.3946   -167.83844    12196.499 
   36750    275.59674    233.06873    -3102.291   -2692.3617    155.13547     12204.07 
   36800    288.08506    233.46238   -3115.4125   -2686.9079   -396.21214    12211.501 
   36850    294.17451    233.57869   -3119.2897   -2681.7274   -719.92035    12218.556 
   36900    286.03157    233.34641   -3111.5469   -2686.0966    -513.6137     12225.06 
   36950    293.66055    233.62844   -3120.9479   -2684.1501   -729.34379    12231.062 
   37000    286.78409    233.37473   -3112.4911   -2685.9215   -621.53347    12236.493 
   37050    279.87179    238.05068   -3101.6893   -2685.4012   -554.63531    12241.409 
   37100      291.317     238.4215     -3114.05   -2680.7381   -999.53024    12245.818 
   37150    287.44494    238.33502   -3111.1673   -2683.6147   -870.29751    12249.536 
   37200     277.7524    238.05015   -3101.6718   -2688.5362   -525.26389    12252.605 
   37250    276.75167    237.91396   -3097.1321   -2685.4849    -447.2171    12255.201 
   37300    286.90207     238.2646   -3108.8199   -2682.0748   -824.16968    12257.366 
   37350    302.60658    238.72043   -3124.0143     -2673.91   -1298.8426    12258.887 
   37400    288.13429    238.20648   -3106.8825   -2678.3046   -835.25714    12259.559 
   37450    272.05181    237.68126   -3089.3752   -2684.7188   -300.38431    12259.597 
   37500    285.08569    238.17278   -3105.7594    -2681.716   -733.91666    12259.252 
   37550    296.69097    238.45507   -3115.1692   -2673.8638   -1127.5773    12258.325 
   37600    291.96999    238.35782   -3111.9273    -2677.644   -891.48667    12256.621 
   37650    285.75839    238.04326   -3101.4421   -2676.3981   -512.18285    12254.268 
   37700    293.03836    238.32133   -3110.7111   -2674.8387   -699.01451    12251.408 
   37750    294.74619    238.32822   -3110.9408   -2672.5282   -712.07077    12247.981 
   37800    277.24229    237.77428   -3092.4761   -2680.0992   -90.028785    12244.008 
   37850    277.52259    237.78163   -3092.7211   -2679.9272   -32.530073    12239.779 
   37900    301.62317    238.55674   -3118.5581   -2669.9165   -743.56743     12235.31 
   37950    304.65201    238.67839   -3122.6128   -2669.4661   -701.26845    12230.282 
   38000     283.0483    237.93632   -3097.8773   -2676.8644    59.430983    12224.728 
   38050    294.48606    233.23455   -3107.8182   -2669.7925   -229.97364    12218.937 
   38100    299.53602     233.3989   -3113.2966   -2667.7595   -317.98948    12212.832 
   38150    299.49437    233.42339    -3114.113   -2668.6379   -158.58906    12206.362 
   38200    288.86945    232.98623   -3099.5411   -2669.8697    309.79304    12199.624 
   38250    300.58137    233.48142   -3116.0474   -2668.9554    22.179457    12192.796 
   38300    299.33129    233.42136   -3114.0454   -2668.8128     147.3101    12185.803 
   38350    302.02512    233.48728   -3116.2426   -2667.0032    230.10912     12178.67 
   38400    284.15264    232.91788   -3097.2626   -2674.6071    806.35617    12171.506 
   38450    292.67454    233.14811   -3104.9369   -2669.6057     634.4807     12164.53 
   38500    303.63162    233.52194   -3117.3981    -2665.769    294.77328     12157.69 
   38550    309.44937     233.7234   -3124.1135    -2663.831     162.5274    12150.816 
   38600    309.36042    233.64218   -3121.4059   -2661.2558    328.72916    12143.839 
   38650    310.07075    233.80364   -3126.7881   -2665.5813    384.86695    12136.828 
   38700    302.68609    233.53168   -3117.7228   -2667.5002    707.94862    12129.825 
   38750    297.88504    233.31403   -3110.4676   -2667.3862    919.85115    12122.984 
   38800    297.59376    233.33909    -3111.303   -2668.6548    893.05122    12116.442 
   38850    305.23103    233.52173   -3117.3911   -2663.3831    756.68927    12110.171 
   38900    312.45854    233.84944   -3128.3148   -2663.5564    586.61654    12104.087 
   38950    306.01449    233.58955   -3119.6518   -2664.4784    816.71909    12098.133 
   39000    305.17673     233.5925     -3119.75   -2665.8228    933.14662     12092.39 
   39050    311.05111    228.76635   -3125.5451   -2662.8801    903.90521    12086.933 
   39100      308.144    228.61536    -3120.512   -2662.1711     1030.429     12081.75 
   39150    317.05259    228.93538   -3131.1794   -2659.5877    759.75382    12076.869 
   39200    316.28779    228.92126   -3130.7086   -2660.2545     745.2715    12072.206 
   39250    327.59747    229.31884   -3143.9612   -2656.6848    411.63213    12067.695 
   39300    308.04832    228.76322   -3125.4406   -2667.2421     1085.703    12063.236 
   39350    295.12905    228.32388   -3110.7959   -2671.8138    1623.1027    12059.123 
   39400    310.27656    228.82693   -3127.5642   -2666.0513    1244.1532    12055.606 
   39450    321.02316    229.15719   -3138.5731   -2661.0755    967.98721    12052.527 
   39500    311.88249    228.87648   -3129.2161   -2665.3145    1213.7711    12049.758 
   39550    309.46191     228.7989   -3126.6301    -2666.329    1234.4182    12047.417 
   39600    308.13622    228.85912   -3128.6374   -2670.3082    1142.0656    12045.525 
   39650    315.49542    229.10747   -3136.9156     -2667.64    915.54245    12044.006 
   39700     309.3186    228.95677   -3131.8922   -2671.8042    1159.0776    12042.773 
   39750    305.72611    228.78514   -3126.1715    -2671.427     1340.465    12041.943 
   39800    304.60495    228.76657   -3125.5523   -2672.4755    1364.7451    12041.594 
   39850    314.32812    229.15803   -3138.6009   -2671.0616    1014.1734     12041.74 
   39900    307.80439    229.07025    -3135.675   -2677.8393    1119.9142    12042.244 
   39950    308.35481    229.04355   -3134.7851   -2676.1307    1169.0493    12043.112 
   40000    308.90586    229.07387   -3135.7958   -2676.3217    1064.7827    12044.386 
   40050    316.58815    234.37984   -3145.9947   -2675.0938    743.77484    12046.011 
   40100    316.01624    234.52047   -3150.6825   -2680.6323    683.36684    12047.838 
   40150    304.34316    234.18853   -3139.6178   -2686.9305    964.00335    12049.853 
   40200     301.4097    234.00311   -3133.4369   -2685.1128    1073.2492    12052.195 
   40250    293.82376    233.85241   -3128.4137   -2691.3731    1292.7309    12054.919 
   40300      302.456    234.15789   -3138.5963    -2688.716    1025.9867    12058.116 
   40350    293.98417    233.87172   -3129.0572    -2691.778    1220.3789    12061.705 
   40400    292.93841    233.86508   -3128.8359   -2693.1122     1173.702    12065.732 
   40450     292.6966    233.87163   -3129.0543   -2693.6903    1032.0172    12070.218 
   40500    305.45757     234.3769   -3145.8968   -2691.5518    556.51423    12075.038 
   40550    287.16161     233.7286   -3124.2868   -2697.1556    1076.8893    12080.025 
   40600    293.97567    234.03351   -3134.4505   -2697.1839    785.30336    12085.358 
   40650    284.73612    233.87951   -3129.3169   -2705.7935    912.86469    12090.965 
   40700    291.17361    234.08246    -3136.082   -2702.9834    683.59052    12096.847 
   40750    282.96611    233.80422   -3126.8073   -2705.9167    798.53285    12102.941 
   40800    290.51164    234.05094   -3135.0315   -2702.9174    516.67937    12109.248 
   40850     276.5334    233.54956   -3118.3187   -2706.9962    777.10046    12115.711 
   40900    288.84498    233.96217   -3132.0722   -2702.4371    207.88752    12122.373 
   40950    292.06706    234.07114   -3135.7048   -2701.2772  -0.46059722    12128.976 
   41000    283.19526    233.76932    -3125.644   -2704.4125    177.17911    12135.429 
   41050    300.12671    234.38201   -3146.0668   -2699.6511    -483.2098    12141.749 
   41100    291.54118    234.05363    -3135.121   -2701.4756   -286.79934    12147.678 
   41150    290.58549    233.93095   -3131.0316   -2698.8077   -261.79219    12153.249 
   41200    283.43524    233.78067   -3126.0224   -2704.4339   -197.64916    12158.483 
   41250    287.21217     233.8463   -3128.2101   -2701.0038   -322.57756    12163.419 
   41300    282.90413    233.71114   -3123.7048   -2702.9063   -115.75104    12168.015 
   41350    279.27644    233.59028   -3119.6759   -2704.2734   -34.108877    12172.358 
   41400     296.4743    234.21747   -3140.5824   -2699.5993   -752.06672    12176.463 
   41450    291.95628    234.03215   -3134.4048    -2700.142   -714.92601    12180.012 
   41500    285.42183    233.71783   -3123.9276   -2699.3842   -475.72434    12182.985 
   41550     289.0589    233.84635   -3128.2117   -2698.2585   -540.42667    12185.484 
   41600    281.79809    233.59877    -3119.959   -2700.8057    -302.2161    12187.518 
   41650    277.66068    233.43036   -3114.3455   -2701.3463   -209.91042    12189.209 
   41700    290.04191     233.9036     -3130.12   -2698.7047   -632.06637    12190.571 
   41750    291.94211    233.95579   -3131.8598    -2697.618   -628.00948    12191.421 
   41800    287.04109    233.69591    -3123.197   -2696.2451   -375.01555    12191.759 
   41850     277.8789    233.31466   -3110.4887   -2697.1649   -44.557012    12191.704 
   41900    272.08279    233.13583   -3104.5277   -2699.8251    97.921301     12191.42 
   41950    291.93243    233.74463    -3124.821   -2690.5936   -476.18202    12190.973 
   42000    293.54875    233.77732   -3125.9108   -2689.2793   -492.41835    12190.127 
   42050    304.37874    234.14659   -3138.2197   -2685.4794   -714.82614    12188.791 
   42100    298.91971    233.95841   -3131.9469   -2687.3265   -558.99665    12186.885 
   42150    295.41952    233.82066   -3127.3552   -2687.9411   -455.82361    12184.466 
   42200    299.21814    233.97318   -3132.4394   -2687.3751   -503.21944    12181.595 
   42250    286.93667    233.47254   -3115.7512   -2688.9547     19.42594    12178.296 
   42300    293.79068    233.69604   -3123.2014   -2686.2101   -94.381913    12174.765 
   42350     305.2767    234.09679   -3136.5598   -2682.4838   -418.71715    12170.983 
   42400    296.38904    233.68799   -3122.9331   -2682.0769   -46.868785    12166.816 
   42450     289.1034    233.39976   -3113.3255   -2683.3061    244.17584      12162.4 
   42500    286.55196    233.34283   -3111.4278   -2685.2034    299.05021    12157.906 
   42550    298.68523    233.79164   -3126.3881   -2682.1164    -58.34529    12153.355 
   42600    288.47043    233.38601   -3112.8669    -2683.789    285.88564    12148.615 
   42650    293.19522    233.51949   -3117.3164   -2681.2107    175.75473    12143.796 
   42700    307.20126    233.85409   -3128.4696    -2671.531   -63.419521    12138.858 
   42750    292.12255    233.38086   -3112.6953   -2678.1851    463.09087    12133.724 
   42800    303.58287    233.85426   -3128.4754   -2676.9189    117.42404    12128.583 
   42850    296.68142    233.58873   -3119.6244   -2678.3333     441.8507    12123.349 
   42900    290.52711    233.38146   -3112.7152   -2680.5781    772.42145    12118.148 
   42950    294.52929    233.51867    -3117.289    -2679.199    714.25546    12113.154 
   43000     309.3025     234.0791   -3135.9699   -2675.9058    308.13636    12108.305 
   43050    295.94386    233.56066   -3118.6888   -2678.4947    838.98904    12103.472 
   43100    294.22516    233.54607   -3118.2023   -2680.5647    1001.5654    12098.869 
   43150    298.98517    233.64229   -3121.4097   -2676.6919    1018.3425    12094.598 
   43200    310.25536    234.10847   -3136.9489   -2675.4675    684.27899    12090.643 
   43250     306.2855    233.88487   -3129.4956   -2673.9191     790.3345    12086.883 
   43300    302.94391    233.80772   -3126.9241    -2676.318    960.93089    12083.324 
   43350    289.23944    233.20139    -3106.713   -2676.4912    1507.8396    12080.114 
   43400    316.09519    234.15017   -3138.3391   -2668.1715    653.19431    12077.431 
   43450     323.3778    234.37539   -3145.8465   -2664.8465    441.21932    12074.924 
   43500     307.6504     233.7872     -3126.24   -2668.6333    976.59347    12072.478 
   43550    294.81351    233.34921   -3111.6403   -2673.1275    1366.7901    12070.337 
   43600    286.41081    233.09986   -3103.3287   -2677.3143    1602.0225    12068.739 
   43650    319.70629    234.31855   -3143.9518   -2668.4129    545.95034    12067.715 
   43700    301.29967    233.68998   -3122.9995    -2674.839    1072.4202    12066.885 
   43750     312.9987    234.12202   -3137.4008   -2671.8389    785.71797    12066.366 
   43800    316.86677    234.35893   -3145.2976   -2673.9823     674.6386    12066.085 
   43850    316.08326    234.24738   -3141.5792   -2671.4293    741.84404    12065.956 
   43900    304.11115    233.84738    -3128.246   -2675.9037    1109.4977    12066.029 
   43950    300.07044    233.69638   -3123.2126   -2676.8806    1224.1851    12066.485 
   44000    312.69623    234.08214   -3136.0715   -2670.9595    831.44855    12067.359 
[...]
   89400    283.91968     236.8583   -3061.9432   -2639.6342    614.69953    12281.587 
   89450    298.08944    237.20298   -3073.4327   -2630.0473    102.59838    12285.062 
   89500      309.515    237.55622   -3085.2072   -2624.8271   -320.94785    12288.423 
   89550    318.36477    237.90171   -3096.7237   -2623.1802   -606.12696    12291.438 
   89600    315.95553    237.73758   -3091.2528   -2621.2929   -381.02452    12293.926 
   89650    296.78575    237.08075   -3069.3583   -2627.9119    244.32816    12296.049 
   89700    305.72978    237.31748   -3077.2495   -2622.4996     51.54855    12298.064 
   89750    279.00429    236.44438   -3048.1459   -2633.1481    810.44553    12300.001 
   89800    302.49251    237.28601   -3076.2003   -2626.2656     45.85688     12302.11 
   89850     297.4422    236.99451   -3066.4835   -2624.0608    159.49283    12304.111 
   89900    291.54864    236.69734   -3056.5778   -2622.9213    315.93545    12306.019 
   89950     303.2851    237.10247   -3070.0825   -2618.9689    -110.6349    12307.897 
   90000    317.61707    237.57142    -3085.714   -2613.2827   -407.72375    12309.534 
   90050    311.58861    242.39401   -3079.8002   -2616.3357   -98.973303    12310.774 
   90100    316.35149    242.47433   -3082.4778    -2611.929   -277.43213    12311.753 
   90150    306.21992    242.18183   -3072.7275   -2617.2486   -49.139748    12312.432 
   90200    291.07501    241.67196   -3055.7319   -2622.7799    451.63587    12312.919 
   90250    296.94574    241.90498   -3063.4993    -2621.815    308.50913    12313.452 
   90300      317.214    242.62079   -3087.3596   -2615.5278   -337.01871    12313.943 
   90350    312.97544    242.42357   -3080.7857   -2615.2584   -251.63953    12314.121 
   90400    314.18045    242.37428   -3079.1428   -2611.8231   -231.59242    12313.965 
   90450    303.70648    242.04062   -3068.0208   -2616.2804    108.14716    12313.521 
   90500    296.18555    241.73956   -3057.9854   -2617.4318    365.62989    12312.956 
   90550    305.00592    242.07716   -3069.2385   -2615.5654    161.41565    12312.394 
   90600    296.75296    241.76105   -3058.7017   -2617.3042    450.06767    12311.792 
   90650    302.87489    241.97382   -3065.7941   -2615.2907    194.18683    12311.221 
   90700    309.87721    242.21097   -3073.6989     -2612.78   -79.912596    12310.577 
   90750    299.26158    241.77564   -3059.1879   -2614.0589    267.78441    12309.743 
   90800    300.89521    241.77308   -3059.1027   -2611.5439    272.57029    12308.877 
   90850    310.97644     242.1219   -3070.7301   -2608.1762   -20.905382    12307.968 
   90900    302.92419    241.89457   -3063.1522   -2612.5754    243.95994    12306.884 
   90950    310.20771    242.21647   -3073.8823   -2612.4718    66.525014    12305.708 
   91000    302.50515     241.8698   -3062.3267   -2612.3732    433.56016    12304.422 
   91050    305.56429    241.99414   -3066.4714   -2611.9677    396.75143    12303.164 
   91100    305.88768    242.14706   -3071.5688    -2616.584    268.57318    12301.952 
   91150    313.14574    242.30262   -3076.7539   -2610.9734    98.419118    12300.696 
   91200     312.6335     242.2123   -3073.7434   -2608.7248    297.68129    12299.311 
   91250    299.83789    241.81596    -3060.532   -2614.5459    650.58174    12297.906 
   91300    289.60095    241.52371   -3050.7902   -2620.0307    756.92695    12296.681 
   91350    305.44035     241.9868   -3066.2265   -2611.9071    219.74712    12295.653 
   91400    310.94158    242.22141    -3074.047    -2611.545    57.589802    12294.578 
   91450    305.39196    242.05237   -3068.4125   -2614.1651    320.75094    12293.367 
   91500    298.78805      241.807   -3060.2335   -2615.8089    625.75343    12292.146 
   91550    310.17263    242.26478   -3075.4927   -2614.1345    197.44332    12291.054 
   91600    311.80562    242.35042   -3078.3475   -2614.5602    104.88548    12289.908 
   91650    303.98463    242.10188   -3070.0627   -2617.9086    446.57131     12288.64 
   91700    308.25838    242.23902   -3074.6339   -2616.1229    250.87052    12287.403 
   91750    307.90054    242.27872   -3075.9573   -2617.9786    66.017961    12286.121 
   91800    304.06552     242.1203   -3070.6767   -2618.4023    166.91136    12284.701 
   91850    305.42077    242.22479   -3074.1597   -2619.8695    182.14098    12283.193 
   91900    306.96681    242.27946   -3075.9819    -2619.392    143.31873    12281.592 
   91950    295.98994    241.93127   -3064.3756    -2624.113    512.01396    12279.919 
   92000     295.9394    241.93695    -3064.565   -2624.3776     572.5312     12278.33 
   92050    297.21806     247.0315   -3067.7165   -2625.6272    583.15649    12276.866 
   92100    299.56847    247.15809   -3071.9363   -2626.3509    460.80388    12275.556 
   92150    303.63232    247.30192   -3076.7308   -2625.1008    266.31435    12274.326 
   92200     295.9754    247.06269   -3068.7564   -2628.5154    410.17324    12273.111 
   92250    305.30693     247.4691   -3082.3034   -2628.1825   -31.648851     12271.92 
   92300    300.99257    247.26875   -3075.6249   -2627.9212    48.390498     12270.58 
   92350    303.75736    247.49587   -3083.1958   -2631.3797   -60.119866    12269.081 
   92400    294.89579    247.23728   -3074.5761   -2635.9409    353.48579    12267.405 
   92450    290.29225    246.95642   -3065.2139   -2633.4261    684.29991    12265.755 
   92500    297.32284    247.24078   -3074.6928   -2632.4476    416.95117    12264.291 
   92550    301.75355     247.4946   -3083.1534   -2634.3179    153.75588     12262.88 
   92600    306.29953    247.73041   -3091.0136   -2635.4163   -28.719227    12261.392 
   92650    301.38885     247.5569   -3085.2299   -2636.9369    130.06071    12259.741 
   92700    296.84895    247.34991   -3078.3303     -2636.79    341.97082    12257.983 
   92750    297.93654    247.51173   -3083.7243   -2640.5663     305.3361    12256.235 
   92800     297.0572    247.45995   -3081.9983   -2640.1482    280.29481    12254.487 
   92850     298.7322    247.54957   -3084.9857   -2640.6442    153.63983    12252.709 
   92900     304.4997    247.77078   -3092.3593   -2639.4391     -93.8656    12250.855 
   92950    304.97045    247.82277   -3094.0924   -2640.4719   -155.23714    12248.801 
   93000    303.03515    247.82355   -3094.1184   -2643.3766   -74.257445    12246.472 
   93050    297.63479    242.60421   -3086.8068   -2644.0977    159.71279    12243.935 
   93100    294.57538    242.58765    -3086.255   -2648.0964    239.60826    12241.295 
   93150    292.52406    242.59481   -3086.4936   -2651.3862    309.61021    12238.583 
   93200    294.91308    242.77245   -3092.4149   -2653.7541    177.64293    12235.845 
   93250    298.35953    242.87088   -3095.6962    -2651.909    -12.11856    12233.008 
   93300     288.3599    242.60411   -3086.8036   -2657.8901    302.28473    12230.001 
   93350    295.18127    242.87157   -3095.7189   -2656.6591    77.391217    12226.946 
   93400    299.70557    243.09999    -3103.333   -2657.5437    -113.3536    12223.749 
   93450    298.38853    243.06193   -3102.0643    -2658.234   -140.46649    12220.304 
   93500    303.18197    243.28487   -3109.4957   -2658.5355   -281.08091    12216.573 
   93550    290.37535    242.84652   -3094.8841   -2662.9728    184.47368    12212.541 
   93600    292.05956    242.97746   -3099.2488   -2664.8323    175.78727    12208.372 
   93650    290.38006    242.88569   -3096.1896   -2664.2713    277.34993    12204.118 
   93700    293.06346    242.98186   -3099.3953   -2663.4856    292.37618    12199.815 
   93750      295.794    243.07014   -3102.3379   -2662.3668    282.29794    12195.474 
   93800    303.38351    243.33903   -3111.3011   -2660.0411    63.651985    12191.064 
   93850    283.46346    242.61553   -3087.1842   -2665.5538    628.47407     12186.54 
   93900    296.73368    243.25448   -3108.4827   -2667.1139    173.02749    12182.095 
   93950    289.08436    242.94309    -3098.103   -2668.1119    491.00131    12177.609 
   94000    295.73432    243.17834   -3105.9446   -2666.0623    337.09125    12173.158 
   94050    304.68073    238.56141   -3118.7137   -2665.5242    118.59792    12168.672 
   94100    291.78849    238.15035   -3105.0116   -2670.9983    617.20984    12164.067 
   94150    296.57454    238.34432   -3111.4773   -2670.3451    500.89062    12159.534 
   94200    283.26358    238.00647   -3100.2158   -2678.8827    900.91641    12155.084 
   94250    285.73081    238.09755   -3103.2516   -2678.2487    838.92791    12150.886 
   94300    302.89195    238.70142   -3123.3806   -2672.8518    241.86883    12146.906 
   94350    296.69879     238.5091   -3116.9699    -2675.653    403.27139     12142.88 
   94400    293.84762     238.4187   -3113.9567   -2676.8807    554.30232    12138.849 
   94450    297.02528    238.54148   -3118.0493   -2676.2467    530.15462    12134.888 
   94500    304.37557    238.78092   -3126.0305   -2673.2949    347.06729    12130.982 
   94550    298.88618    238.52559   -3117.5197   -2672.9491    556.59269    12127.078 
   94600    309.57995    239.06288   -3135.4295   -2674.9527    225.60547    12123.214 
   94650     297.5124    238.58787   -3119.5956   -2677.0685    675.41576    12119.293 
   94700    294.22875    238.49098    -3116.366    -2678.723    805.24511    12115.503 
   94750    288.93688    238.31419   -3110.4731   -2680.7014    898.87427    12111.953 
   94800    302.24261    238.75312    -3125.104    -2675.541    499.86176    12108.642 
   94850    296.71604    238.51277   -3117.0923   -2675.7497     677.1485    12105.427 
   94900    296.17193    238.55961   -3118.6535   -2678.1203      628.407    12102.345 
   94950    299.73215    238.74449   -3124.8164   -2678.9875    521.35426    12099.389 
   95000    300.61349    238.77586    -3125.862   -2678.7222    543.52472    12096.502 
   95050    294.87118    238.64774   -3121.5912   -2682.9927    830.07285    12093.702 
   95100    285.03624    238.29094    -3109.698   -2685.7282    1191.6368    12091.148 
   95150     296.1456    238.62052   -3120.6839   -2680.1898    828.35589    12089.006 
   95200    305.62583    238.92577   -3130.8591   -2676.2638    480.75813    12087.113 
   95250    305.27652    238.97541   -3132.5136   -2678.4379    480.40918    12085.276 
   95300    296.36074    238.71069   -3123.6896   -2682.8754    807.84113    12083.511 
   95350    298.18003    238.79275    -3126.425   -2682.9048    799.00332    12081.979 
   95400    302.20773    238.99988   -3133.3292   -2683.8181    668.48508    12080.659 
   95450    301.19446    238.93564    -3131.188   -2683.1841    712.82907    12079.519 
   95500    305.89386    239.20561   -3140.1872   -2685.1932    516.90049    12078.547 
   95550    291.38784    238.67006   -3122.3355   -2688.9181    981.98846    12077.688 
   95600    290.01853    238.69462   -3123.1541   -2691.7735    987.90518    12077.141 
   95650    296.57735    238.89682   -3129.8939   -2688.7575     715.7015    12076.944 
   95700    298.30832    238.98005   -3132.6684   -2688.9574    642.93905    12076.959 
   95750    278.14612    238.32368   -3110.7892   -2697.0679    1270.8314    12077.173 
   95800    286.52044    238.59664   -3119.8882   -2693.7107    893.10825    12077.858 
   95850    307.37092    239.45699   -3148.5664   -2691.3755    83.038839    12078.831 
   95900    296.89566    239.16464   -3138.8212   -2697.2114    433.71277    12079.742 
   95950    280.32938    238.63686   -3121.2288   -2704.2601    877.59045    12080.728 
   96000    292.05524    239.09827   -3136.6092   -2702.1991    490.94711    12081.971 
   96050    291.17524    239.09312   -3136.4372   -2703.3361     513.0814    12083.358 
   96100    293.53232    239.26672   -3142.2241    -2705.617    310.42241    12084.844 
   96150    291.22682    239.24271   -3141.4236   -2708.2458    284.05444    12086.336 
   96200    282.71209    239.00017    -3133.339   -2712.8262     537.8169     12087.83 
   96250    280.67202    238.97186   -3132.3955   -2714.9171    497.08963    12089.453 
   96300    298.29491    239.62262   -3154.0873   -2710.3963   -181.77852    12091.151 
   96350    268.80258    238.64929    -3121.643   -2721.8195      706.946    12092.692 
   96400    277.68178    238.97874   -3132.6247   -2719.5941    467.39457    12094.394 
   96450    291.89493    239.61843   -3153.9477   -2719.7761   -133.75844    12096.188 
   96500    290.28935    239.54337   -3151.4455   -2719.6621   -170.50763    12097.788 
   96550    291.75509    239.57929   -3152.6431   -2718.6795   -230.28203    12099.142 
   96600    275.94085    239.08475   -3136.1584   -2725.7173    216.95006    12100.237 
   96650    280.90806     239.2614   -3142.0467   -2724.2172    -80.27756    12101.251 
   96700    284.75369    239.43464   -3147.8213   -2724.2718   -326.53754    12102.091 
   96750    282.53135    239.30263   -3143.4211   -2723.1771   -176.25415    12102.599 
   96800    270.02039    238.82433   -3127.4776   -2725.8427    278.14003    12102.888 
   96850    280.76429    239.16064   -3138.6881   -2721.0725   -25.423621    12103.118 
   96900    274.44146    239.02478   -3134.1594   -2725.9486    100.57427    12103.188 
   96950    270.68135    238.95219   -3131.7396   -2729.1216    93.886752    12103.141 
   97000    283.63478    239.43419   -3147.8065   -2725.9213   -307.67845    12102.949 
   97050    285.87601    239.48074    -3149.358   -2724.1391   -264.87128    12102.448 
   97100    284.39187     239.3134   -3143.7799   -2720.7686   -118.41861    12101.634 
   97150    278.29583    239.11345   -3137.1149    -2723.171    41.440886    12100.578 
   97200    272.77008    238.95001   -3131.6672   -2725.9423    230.36477    12099.364 
   97250    282.06734    239.31724   -3143.9081   -2724.3543    26.488448    12098.053 
   97300    277.25872    239.08048   -3136.0159   -2723.6145    232.04342    12096.597 
   97350     281.7416    239.26933   -3142.3108   -2723.2416     48.95279    12095.058 
   97400    277.47685    239.10758   -3136.9195   -2724.1937    190.82803    12093.369 
   97450    291.77107    239.52389   -3150.7964    -2716.809   -110.55909    12091.555 
   97500    289.61527    239.41431   -3147.1436   -2716.3628    31.470613    12089.501 
   97550    278.74902     239.0062   -3133.5401    -2718.922    457.38672     12087.28 
   97600    283.29262    239.11074   -3137.0246   -2715.6483    494.99597    12085.091 
   97650    282.10484    239.05592   -3135.1975   -2715.5879    710.47501    12082.973 
   97700    284.13279    239.16015   -3138.6718   -2716.0458    639.05902    12081.026 
   97750    283.14568     239.0482   -3134.9401   -2713.7824    660.87311    12079.225 
   97800    283.80917    238.97791   -3132.5969   -2710.4523    662.72399    12077.583 
   97850    292.48923    239.22919    -3140.973   -2705.9174    472.83701    12076.086 
   97900    289.16967     239.1055   -3136.8501   -2706.7322    657.55902     12074.66 
   97950    281.68439    238.89369   -3129.7898   -2710.8056    842.63215    12073.396 
   98000    285.90714    238.92108   -3130.7027   -2705.4375    744.04134    12072.385 
   98050    283.36273    238.69567   -3123.1889   -2701.7083    1004.1693    12071.612 
   98100    286.70906    238.74739   -3124.9131   -2698.4551    1052.9367    12071.156 
   98150    299.60124    239.05653   -3135.2176   -2689.5835    743.80969     12071.07 
   98200    295.75726    238.90677   -3130.2258   -2690.3092    864.57013    12071.242 
   98250    284.82228    238.54198   -3118.0661   -2694.4145    1203.7917    12071.719 
   98300    301.10123    239.12519   -3137.5064   -2689.6412    709.10313    12072.618 
   98350    300.31295    239.03718   -3134.5726   -2687.8799    771.37582    12073.759 
   98400    285.81673    238.42412   -3114.1373   -2689.0065    1303.7429    12075.179 
   98450    299.79524    238.84729   -3128.2428   -2682.3201     951.3589    12077.085 
   98500    293.25457    238.53207   -3117.7358   -2681.5419    1137.3742    12079.393 
   98550    294.47653    238.70823   -3123.6076   -2685.5961    1011.7142    12082.146 
   98600    288.90749    238.45925   -3115.3082   -2685.5802    1167.1142    12085.333 
   98650    290.91363    238.43316   -3114.4388   -2681.7268    1088.7014    12088.998 
   98700    297.00812    238.61128    -3120.376   -2678.5989    864.26431    12093.122 
   98750    302.43854    238.76285   -3125.4282   -2675.5738    701.60183    12097.601 
   98800    310.99308    239.18854   -3139.6179   -2677.0393    389.00728    12102.323 
   98850    305.01983    238.86049   -3128.6831   -2674.9893    534.34026    12107.173 
   98900    300.42427    238.65894   -3121.9646   -2675.1063    657.09094    12112.199 
   98950    297.30442    238.55947   -3118.6492   -2676.4314    770.04776    12117.463 
   99000    301.17398    238.71654   -3123.8846   -2675.9111    650.13429    12123.038 
   99050    304.24969    233.83963   -3127.9875   -2675.4391    484.93364    12128.852 
   99100    291.19006     233.3564     -3111.88   -2678.7568    793.47219    12134.847 
   99150    307.55161    233.87144   -3129.0478   -2671.5881    243.40111    12141.114 
   99200    310.55542    233.99665   -3133.2218   -2671.2941    1.3937328    12147.425 
   99250    303.56531    233.77242   -3125.7474    -2674.217     135.4473    12153.632 
   99300    295.15956    233.45832   -3115.2775     -2676.25    413.12869    12159.802 
   99350    301.30582    233.69308   -3123.1027   -2674.9331     202.2557    12166.072 
   99400    299.66367    233.52247   -3117.4155   -2671.6886    187.10016    12172.368 
   99450    302.71799    233.55865   -3118.6216   -2668.3516    91.555313    12178.635 
   99500    288.79504    233.02603   -3100.8675   -2671.3068    379.05353     12184.87 
   99550    288.09408    232.90795   -3096.9318   -2668.4137    414.88943    12191.186 
   99600    293.88682    233.11579   -3103.8595   -2666.7251    293.57461    12197.606 
   99650    302.12294    233.41854   -3113.9512   -2664.5662    4.4477205    12204.072 
   99700    301.26372     233.3618     -3112.06   -2663.9531   -33.647133    12210.449 
   99750    297.96779    233.28407    -3109.469   -2666.2645    71.288266    12216.688 
   99800    292.16231    233.10443    -3103.481   -2668.9117    188.81223    12222.861 
   99850    297.85367    233.24648   -3108.2161   -2665.1813   -97.827954    12229.013 
   99900    299.48536    233.29787   -3109.9291   -2664.4673   -308.94264    12235.003 
   99950    304.21749    233.48772   -3116.2572   -2663.7568   -530.31172    12240.694 
  100000    297.33361    233.18037   -3106.0124   -2663.7512   -272.49849    12245.994 
Loop time of 26.7196 on 1 procs for 100000 steps with 500 atoms

Performance: 323.358 ns/day, 0.074 hours/ns, 3742.568 timesteps/s
99.8% CPU use with 1 MPI tasks x 1 OpenMP threads

MPI task timing breakdown:
Section |  min time  |  avg time  |  max time  |%varavg| %total
---------------------------------------------------------------
Pair    | 22.053     | 22.053     | 22.053     |   0.0 | 82.54
Bond    | 0.0064118  | 0.0064118  | 0.0064118  |   0.0 |  0.02
Neigh   | 0.51753    | 0.51753    | 0.51753    |   0.0 |  1.94
Comm    | 0.77851    | 0.77851    | 0.77851    |   0.0 |  2.91
Output  | 0.018228   | 0.018228   | 0.018228   |   0.0 |  0.07
Modify  | 2.7483     | 2.7483     | 2.7483     |   0.0 | 10.29
Other   |            | 0.5975     |            |       |  2.24

Nlocal:    500 ave 500 max 500 min
Histogram: 1 0 0 0 0 0 0 0 0 0
Nghost:    1589 ave 1589 max 1589 min
Histogram: 1 0 0 0 0 0 0 0 0 0
Neighs:    14413 ave 14413 max 14413 min
Histogram: 1 0 0 0 0 0 0 0 0 0

Total # of neighbors = 14413
Ave neighs/atom = 28.826
Ave special neighs/atom = 0
Neighbor list builds = 622
Dangerous builds = 0

write_data      ${walker}/final_restart_file
write_data      3/final_restart_file

quit
