LAMMPS (19 May 2017)
Processor partition = 10
  using 1 OpenMP thread(s) per MPI task
# gREM variables
variable        lambda world 1000 1005 1010 1015 1020 1025 1030 1035 1040 1045 1050 1055 1060 1065 1070 1075
variable        walker world 0 1 2 3 4 5 6 7 8 9 10 11 12 13 14 15
variable        replica world 0 1 2 3 4 5 6 7 8 9 10 11 12 13 14 15

variable        T0 equal 300.0
variable        press equal 0.0

units           real
atom_style      full
pair_style      lj/cut 5.0

# LJ particles
read_data       init_restart_file
  orthogonal box = (1.27034 1.27034 1.27034) to (23.7297 23.7297 23.7297)
  1 by 1 by 1 MPI processor grid
  reading atoms ...
  500 atoms
  reading velocities ...
  500 velocities
  0 = max # of 1-2 neighbors
  0 = max # of 1-3 neighbors
  0 = max # of 1-4 neighbors
  1 = max # of special neighbors

#dump            dump all xyz 1000 ${rep}/dump.xyz

fix             fxnpt all npt temp ${T0} ${T0} 1000.0 iso ${press} ${press} 10000.0
fix             fxnpt all npt temp 300 ${T0} 1000.0 iso ${press} ${press} 10000.0
fix             fxnpt all npt temp 300 300 1000.0 iso ${press} ${press} 10000.0
fix             fxnpt all npt temp 300 300 1000.0 iso 0 ${press} 10000.0
fix             fxnpt all npt temp 300 300 1000.0 iso 0 0 10000.0
fix             fxgREM all grem ${lambda} -.03 -30000 fxnpt
fix             fxgREM all grem 1050 -.03 -30000 fxnpt
thermo_modify   press fxgREM_press

thermo          50
thermo_style    custom step temp f_fxgREM pe etotal press vol
WARNING: New thermo_style command, previous thermo_modify settings will be lost (../output.cpp:705)
timestep        1.0

temper/grem     100000 1000 ${lambda} fxgREM fxnpt 10294 98392 #${walker}
temper/grem     100000 1000 1050 fxgREM fxnpt 10294 98392 
Neighbor list info ...
  update every 1 steps, delay 10 steps, check yes
  max neighbors/atom: 2000, page size: 100000
  master list distance cutoff = 7
  ghost atom cutoff = 7
  binsize = 3.5, bins = 7 7 7
  1 neighbor lists, perpetual/occasional/extra = 1 0 0
  (1) pair lj/cut, perpetual
      attributes: half, newton on
      pair build: half/bin/newton
      stencil: half/bin/3d/newton
      bin: standard
Per MPI rank memory allocation (min/avg/max) = 5.728 | 5.728 | 5.728 Mbytes
Step Temp f_fxgREM PotEng TotEng Press Volume 
       0    299.42262      252.507      -3416.9   -2971.5315    1317.0315    11328.967 
      50    222.94356    249.79148   -3326.3825   -2994.7708    4000.6187    11329.334 
     100     189.9164    248.72003   -3290.6676   -3008.1814    5156.9021    11331.383 
     150    201.48345    249.09894    -3303.298   -3003.6066    4673.0547     11335.72 
     200    210.89913    249.40415   -3313.4717   -2999.7752    4333.4421     11342.17 
     250    218.50307     249.6036     -3320.12   -2995.1133    4018.0258    11350.564 
     300    217.85913    249.53605   -3317.8683   -2993.8193    3953.9866    11360.774 
     350    211.87303    249.26925   -3308.9751     -2993.83    4016.2034    11372.773 
     400    218.41169    249.40376   -3313.4587   -2988.5879     3611.266    11386.566 
     450      220.706    249.42022   -3314.0072   -2985.7238    3379.8375    11401.991 
     500    214.17158     249.1144   -3303.8133   -2985.2493    3412.1207    11418.948 
     550    215.94018    249.10221    -3303.407   -2982.2123    3180.0616    11437.429 
     600    223.72153    249.36202   -3312.0672   -2979.2984    2693.3646    11457.319 
     650    222.03584    249.22823   -3307.6076   -2977.3461    2463.0352    11478.417 
     700    214.72404    248.80466   -3293.4886   -2974.1028    2503.1579    11500.592 
     750    214.65808    248.77726   -3292.5752   -2973.2875    2229.3181    11523.833 
     800    214.25381    248.68653   -3289.5511   -2970.8648    1941.1339    11548.018 
     850    215.76369    248.64421   -3288.1405   -2967.2083    1586.8028    11572.973 
     900    210.29966    248.34146   -3278.0486   -2965.2438    1521.1968    11598.543 
     950    215.15871    248.37357   -3279.1191   -2959.0868    1123.2857    11624.649 
    1000    219.32905    248.46253   -3282.0842   -2955.8489    717.01927    11651.071 
    1050    215.50109    253.23392    -3274.464   -2953.9225    608.85765     11677.61 
    1100    213.34337    253.13741    -3271.247   -2953.9149    391.81821    11704.179 
    1150    207.21728    252.79999   -3259.9996   -2951.7796     366.8786    11730.671 
    1200    203.83362     252.5467   -3251.5568   -2948.3698    273.60162    11757.044 
    1250    208.42511    252.62691   -3254.2304   -2944.2138   -113.85566    11783.213 
    1300    215.46467    252.71835   -3257.2783   -2936.7909    -523.4479    11808.982 
    1350    220.33431    252.78658   -3259.5528   -2931.8222   -856.72622    11834.113 
    1400    212.64186    252.37955   -3245.9851   -2929.6964   -871.38071    11858.441 
    1450    221.08668    252.65777    -3255.259   -2926.4093   -1370.1429    11881.898 
    1500    210.37411    252.08195   -3236.0649   -2923.1493   -1098.8331    11904.306 
    1550    212.40459    251.92059   -3230.6863   -2914.7506   -1272.5096    11925.718 
    1600    202.61456    251.49765   -3216.5884   -2915.2146   -1128.6825    11946.094 
    1650    199.93109    251.33315   -3211.1051   -2913.7228   -1112.0387    11965.483 
    1700    207.86731    251.39186   -3213.0619   -2903.8751   -1428.9852    11983.898 
    1750     218.0532    251.66436   -3222.1453   -2897.8077   -1907.5284    12001.169 
    1800    207.49939    251.13893   -3204.6309   -2895.9913    -1659.448    12017.116 
    1850    222.88387     251.6102   -3220.3399    -2888.817   -2204.4391    12031.775 
    1900    222.27284    251.48261    -3216.087    -2885.473   -2166.0197    12044.962 
    1950     215.3884    251.14255   -3204.7516   -2884.3776   -1942.2047    12056.691 
    2000    218.49602    251.16194   -3205.3979   -2880.4016   -2065.6555    12067.074 
    2050    217.57931    245.98978   -3199.6593   -2876.0266   -2038.0468    12076.085 
    2100    221.85783    246.05608   -3201.8692   -2871.8725   -2165.5533    12083.739 
    2150    226.33669    246.07661   -3202.5537    -2865.895   -2266.3152    12090.002 
    2200     229.9087    246.06775   -3202.2582   -2860.2865    -2286.776    12094.829 
    2250    221.32752    245.69629   -3189.8763   -2860.6684   -1935.8085    12098.248 
    2300    213.23275    245.30223   -3176.7411   -2859.5735   -1610.0331    12100.464 
    2350    227.40421    245.60367   -3186.7889   -2848.5423   -1874.9544    12101.634 
    2400    227.73073    245.50787   -3183.5956   -2844.8634   -1793.6995     12101.69 
    2450    225.07306    245.31242   -3177.0807   -2842.3016   -1619.7262    12100.678 
    2500    237.90595    245.61825   -3187.2749   -2833.4078   -1862.4231    12098.663 
    2550    233.85316    245.40933   -3180.3109    -2832.472   -1565.7056    12095.591 
    2600    226.08312    245.11614   -3170.5379   -2834.2564   -1121.0954    12091.612 
    2650    226.39747    245.03685    -3167.895    -2831.146   -983.36094    12086.972 
    2700    238.67158    245.31474   -3177.1581   -2822.1522   -1186.3156    12081.748 
    2750     244.2947    245.40696    -3180.232   -2816.8622   -1230.3722    12075.862 
    2800    242.65818    245.37711   -3179.2371   -2818.3015   -1127.0692    12069.301 
    2850    242.35541    245.18457   -3172.8189   -2812.3335    -946.1058    12062.129 
    2900    241.62931    245.06335   -3168.7782    -2809.373   -688.03213    12054.447 
    2950    247.58017    245.11418   -3170.4726   -2802.2159   -652.50882    12046.389 
    3000    254.44545    245.32602   -3177.5339   -2799.0656   -727.36264    12037.982 
    3050     240.2478     249.7791   -3159.3034    -2801.953   -70.978854    12029.248 
    3100    256.56542    250.25634   -3175.2114   -2793.5898   -347.40099    12020.442 
    3150    262.07485    250.32667   -3177.5556   -2787.7391   -266.66698    12011.489 
    3200    256.45758    250.01395   -3167.1317   -2785.6705    181.36399    12002.436 
    3250    257.59119     250.0461   -3168.2035   -2785.0561    362.51397     11993.48 
    3300    257.16189    249.93846   -3164.6155   -2782.1066    610.53384    11984.726 
    3350    262.34065    249.96747   -3165.5824   -2775.3706    630.37626    11976.312 
    3400    270.20193    250.17674    -3172.558   -2770.6531    583.34822    11968.223 
    3450    266.57027    249.99101   -3166.3669   -2769.8638    1007.8675    11960.447 
    3500    266.87245    249.94943   -3164.9809   -2768.0283    1236.5059    11953.181 
    3550    277.82421    250.12119   -3170.7065    -2757.464    1036.9865     11946.52 
    3600    275.20892    249.93133   -3164.3775   -2755.0251    1212.2518    11940.392 
    3650    265.69319    249.54339   -3151.4465    -2756.248    1711.2709    11934.856 
    3700    265.49824    249.47848   -3149.2826    -2754.374    1821.2044    11930.154 
    3750    283.49216    250.04005   -3168.0016   -2746.3285    1355.7046    11926.295 
    3800    275.65564     249.5975   -3153.2499   -2743.2331    1785.6748    11923.107 
    3850    290.57532    250.06741   -3168.9138    -2736.705    1430.2676    11920.697 
    3900    282.84238     249.6424   -3154.7468   -2734.0402    1867.9918    11918.965 
    3950    277.84136    249.32855   -3144.2851   -2731.0172    2203.8928    11918.085 
    4000    296.60262    249.96301   -3165.4335   -2724.2596    1622.9412    11918.169 
    4050    305.03609    245.13391   -3171.1303   -2717.4122    1396.3691     11918.96 
    4100    296.49355    244.78953   -3159.6511   -2718.6395     1729.692    11920.325 
    4150    293.51942    244.57586   -3152.5287   -2715.9408    1924.5353    11922.396 
    4200    292.43131    244.45707   -3148.5689   -2713.5995    2058.8857    11925.275 
    4250    291.51762    244.40371   -3146.7904     -2713.18    2145.4928    11929.028 
    4300    293.27422    244.36109   -3145.3697   -2709.1465    2078.7542     11933.69 
    4350    298.75633    244.48325   -3149.4417   -2705.0643    1953.5732    11939.216 
    4400    300.63573    244.49846   -3149.9487   -2702.7759    1913.8772    11945.538 
    4450    298.61462    244.26576    -3142.192   -2698.0254    2025.8901     11952.64 
    4500    303.77774    244.35007   -3145.0023   -2693.1559    1851.3501    11960.535 
    4550    299.89111    244.16068   -3138.6894   -2692.6241    1870.9101    11969.156 
    4600    309.07405    244.40279   -3146.7595   -2687.0353    1544.8414    11978.467 
    4650    296.58168    243.92894   -3130.9646   -2689.8218    1890.0824    11988.356 
    4700    293.95043    243.80261   -3126.7536   -2689.5246    1843.9708    11998.961 
    4750    313.18274    244.35573   -3145.1911   -2679.3555    1125.8187    12010.229 
    4800    305.21979    243.96078    -3132.026   -2678.0347    1350.6597    12021.864 
    4850     300.5861    243.70083   -3123.3609   -2676.2618    1464.6168    12033.913 
    4900    305.77675     243.8608   -3128.6935   -2673.8737      1170.79    12046.427 
    4950    291.95246    243.30296   -3110.0986   -2675.8414    1459.3477    12059.318 
    5000    296.92711    243.39513   -3113.1709   -2671.5143    1255.5807    12072.646 
    5050    289.49139    248.04038   -3101.3461   -2670.7496    1481.5552    12086.376 
    5100    298.04218    248.36991   -3112.3303   -2669.0152    1144.8176    12100.568 
    5150    300.28044     248.3926   -3113.0867   -2666.4423     1035.783    12115.091 
    5200    294.60887    248.10571   -3103.5238   -2665.3154    1155.4247    12129.887 
    5250    289.74248    247.79088   -3093.0293   -2662.0593    1263.7149    12145.011 
    5300    300.95865    248.12574   -3104.1913   -2656.5381    767.90043     12160.46 
    5350    289.11615    247.74352   -3091.4506   -2661.4122    895.21941    12176.049 
    5400    287.87061    247.63602   -3087.8673   -2659.6816    834.88088    12191.801 
    5450    289.23867    247.57459   -3085.8195   -2655.5989    689.21464    12207.703 
    5500    298.25097     247.7386   -3091.2865   -2647.6608    214.73652    12223.634 
    5550    295.91273    247.53806   -3084.6021   -2644.4543    79.235048    12239.382 
    5600    299.06054    247.49494   -3083.1647   -2638.3349   -51.951211    12254.842 
    5650    294.38386    247.22492   -3074.1639   -2636.2902    23.395622    12269.978 
    5700    300.90276    247.43521   -3081.1736   -2633.6035   -273.74301    12284.773 
    5750    290.33196    247.11787   -3070.5957   -2638.7489   -125.25668    12299.129 
    5800    292.04907    247.02307   -3067.4358    -2633.035   -239.48855    12313.086 
    5850    296.12834    247.08525   -3069.5083   -2629.0398   -371.83918    12326.593 
    5900    302.28411    247.19021    -3073.007   -2623.3823   -535.09391    12339.581 
    5950    295.01647      246.902   -3063.3999   -2624.5852   -373.93222    12351.984 
    6000    290.41555    246.69057   -3056.3523   -2624.3811   -349.22716    12363.872 
    6050    295.52118    246.83023   -3061.0075   -2621.4422   -609.59519    12375.256 
    6100    305.92493      247.174   -3072.4667   -2617.4265   -952.52176        12386 
    6150    293.57131      246.664   -3055.4667   -2618.8017   -605.82407     12395.98 
    6200    293.16018    246.50459   -3050.1531   -2614.0996   -495.65112    12405.322 
    6250    276.32712    245.85323   -3028.4411   -2617.4255    82.734942    12414.156 
    6300    294.75276    246.35677   -3045.2257   -2606.8033   -430.33052    12422.714 
    6350    298.49187    246.47169   -3049.0564   -2605.0723   -728.57274     12430.81 
    6400    297.94306    246.29155   -3043.0517    -2599.884   -851.41114    12438.257 
    6450    305.27872    246.49505   -3049.8351   -2595.7561   -1158.1788    12444.968 
    6500     299.2321    246.32352   -3044.1175   -2599.0324   -960.77834    12450.818 
    6550    287.27195    245.84573   -3028.1909   -2600.8956   -505.81453    12455.917 
    6600    305.36506    246.47892   -3049.2975   -2595.0901   -1048.5251    12460.449 
    6650      308.106    246.46177   -3048.7256   -2590.4412   -1038.3437    12464.217 
    6700    299.47327    246.11864   -3037.2882   -2591.8444   -633.61482     12467.21 
    6750    290.15628    245.71846   -3023.9488   -2592.3633   -226.51218    12469.648 
    6800    296.18422    245.86798   -3028.9327   -2588.3812   -407.80769    12471.736 
    6850    309.99056    246.35936   -3045.3119   -2584.2244   -913.93355     12473.39 
    6900    309.49703    246.18216   -3039.4053   -2579.0519   -906.19344    12474.367 
    6950    311.03618     246.2132     -3040.44   -2577.7973   -950.92047    12474.644 
    7000    307.46821     246.0126   -3033.7533   -2576.4176   -768.41909    12474.221 
    7050    288.41253    245.28172   -3009.3907   -2580.3989   -62.053817     12473.23 
    7100    295.14949    245.46175   -3015.3917   -2576.3792   -205.42319    12471.999 
    7150    312.56863    245.93158   -3031.0527   -2566.1306   -775.80268    12470.489 
    7200    323.03919    246.27477   -3042.4923    -2561.996   -1069.5225    12468.377 
    7250    316.46657    246.05426   -3035.1419   -2564.4219   -670.49552    12465.528 
    7300    313.85011    245.96674   -3032.2247   -2565.3964   -465.01004    12462.144 
    7350    309.72248    245.81525   -3027.1749   -2566.4862   -338.74642    12458.351 
    7400    321.07246    246.16569   -3038.8564   -2561.2855   -618.32885    12454.183 
    7450    308.13705    245.67413    -3022.471   -2564.1405   -99.483597     12449.59 
    7500    302.87641    245.45753    -3015.251   -2564.7453    276.65389    12444.799 
    7550    302.96828    245.52371   -3017.4571   -2566.8148    352.82121    12440.024 
    7600    318.10829    245.97081   -3032.3602   -2559.1983   -58.969954     12435.29 
    7650     317.8943    246.02931   -3034.3104   -2561.4667   -154.08148    12430.416 
    7700    324.71396     246.2154   -3040.5135   -2557.5261   -305.84607    12425.288 
    7750     317.1436    245.94182   -3031.3941   -2559.6671     18.37441    12419.894 
    7800     320.6453    245.98989   -3032.9962   -2556.0607    66.737801    12414.367 
    7850    332.49647    246.39954   -3046.6514   -2552.0881   -256.97059    12408.717 
    7900    324.89933    246.09538   -3036.5126   -2553.2495    58.741551    12402.828 
    7950    311.34445    245.59628   -3019.8762   -2556.7749    619.15212    12396.863 
    8000    330.31327    246.33401    -3044.467    -2553.151    159.18438    12391.048 
    8050    303.58674    245.40782   -3013.5941   -2562.0318    1036.3999    12385.285 
    8100    302.81205    245.45815   -3015.2718   -2564.8618    1045.3035    12379.918 
    8150    323.26956    246.20078   -3040.0261   -2559.1872    406.90443    12374.964 
    8200    327.30918    246.37651   -3045.8835   -2559.0359    225.41419    12370.133 
    8250    329.54929    246.50811   -3050.2703   -2560.0908    88.431012    12365.291 
    8300     318.4206    246.06496   -3035.4986   -2561.8721    503.25222    12360.372 
    8350    308.65157    245.68465   -3022.8218    -2563.726    929.15684    12355.596 
    8400    322.19677    246.24683   -3041.5611   -2562.3178    562.34596    12351.161 
    8450    322.51963     246.4058   -3046.8601   -2567.1365    610.88683    12346.924 
    8500     314.8906    246.14196   -3038.0654   -2569.6895    895.74766    12342.903 
    8550    320.14035    246.35353   -3045.1176   -2568.9331    665.13879    12339.206 
    8600    311.24414    246.07761   -3035.9202   -2572.9681    929.66806    12335.762 
    8650    304.30072    245.81033   -3027.0111   -2574.3869    1133.5053     12332.69 
    8700    324.04136    246.49138   -3049.7126   -2567.7257    502.51326    12330.044 
    8750    323.13663    246.60443   -3053.4809   -2572.8396    406.71915    12327.544 
    8800    319.34043    246.43266   -3047.7552   -2572.7606    475.45798    12325.114 
    8850    302.82647    245.89885   -3029.9617   -2579.5303    976.66359    12322.823 
    8900     311.9513     246.3387   -3044.6232   -2580.6193    778.69814    12320.856 
    8950    303.67241    246.17758   -3039.2527    -2587.563    977.74417    12319.206 
    9000    312.08841    246.48262   -3049.4207   -2585.2128    671.68399    12317.905 
    9050    304.24015    251.29547   -3043.1824   -2590.6482    914.26429    12316.846 
    9100    320.82204      252.014   -3067.1332   -2589.9348    325.93511    12316.099 
    9150    309.29956    251.68952   -3056.3173   -2596.2576    544.91177    12315.445 
    9200    304.42065    251.56334   -3052.1113   -2599.3087    620.31548    12314.926 
    9250    298.76099    251.33667   -3044.5557   -2600.1714     787.8726    12314.637 
    9300    306.35327    251.71448   -3057.1493    -2601.472    439.62571    12314.597 
    9350    303.31633    251.65625   -3055.2085   -2604.0484    388.80819     12314.67 
    9400    301.73334    251.58354   -3052.7845   -2603.9791    391.80872    12314.808 
    9450    307.39155    251.83333   -3061.1108   -2603.8892     168.4775    12315.004 
    9500    295.23623    251.48995   -3049.6651   -2610.5236    536.70636    12315.187 
    9550    304.06703    251.87512   -3062.5042   -2610.2275    238.73642    12315.475 
    9600    312.03834    252.28962   -3076.3207   -2612.1873   -140.14614    12315.733 
    9650    312.00211    252.31826   -3077.2754   -2613.1959   -272.50655    12315.781 
    9700    297.77785    251.78734    -3059.578    -2616.656    173.99994    12315.566 
    9750    285.14604    251.38684    -3046.228   -2622.0949    477.14581    12315.291 
    9800    292.33722    251.66967   -3055.6557   -2620.8262    176.65743      12315.1 
    9850    286.79224    251.62306   -3054.1021   -2627.5203    348.86614    12314.901 
    9900    290.35435    251.85512   -3061.8372   -2629.9571    98.800701    12314.735 
    9950    303.89849    252.41351   -3080.4505   -2628.4245   -526.15629    12314.464 
   10000    290.65733    251.88491   -3062.8305   -2630.4997   -97.229687     12313.82 
   10050    294.04717    247.02785    -3067.595   -2630.2221   -143.34868    12312.939 
   10100    291.47156    247.05765   -3068.5883   -2635.0464   -115.89532    12311.843 
   10150    288.80025    246.99042   -3066.3472   -2636.7788   -74.324218    12310.524 
   10200    284.92289    246.87626   -3062.5421   -2638.7408    84.983933    12309.036 
   10250    291.59536     247.1554   -3071.8465   -2638.1205   -58.010367    12307.419 
   10300    291.45155    247.14658   -3071.5527   -2638.0406    -77.76372    12305.643 
   10350    296.00957    247.36915   -3078.9717   -2638.6799   -257.12948    12303.665 
   10400    293.90796    247.37338   -3079.1127   -2641.9469   -233.37858    12301.403 
   10450    293.67963     247.3905   -3079.6835   -2642.8573   -267.09998    12298.856 
   10500    286.78362    247.05772   -3068.5907   -2642.0218   -21.664514    12296.037 
   10550    288.07485    247.21681   -3073.8937   -2645.4042   -54.982488    12293.052 
   10600    300.57756    247.72078   -3090.6927   -2643.6063   -462.00084     12289.87 
   10650    297.00447    247.65674   -3088.5579   -2646.7863    -369.1966    12286.325 
   10700    293.67068    247.57736    -3085.912   -2649.0992   -209.35325    12282.427 
   10750    275.77412     246.9911     -3066.37   -2656.1769    361.24495    12278.303 
   10800    288.61953    247.40093    -3080.031   -2650.7314   -39.038043    12274.194 
   10850    304.90886    247.89932   -3096.6439   -2643.1151   -496.54712    12269.934 
   10900    298.09059    247.74834   -3091.6112   -2648.2241   -268.89355    12265.302 
   10950    296.37629    247.71406   -3090.4686   -2649.6313   -205.39679    12260.366 
   11000     292.5912    247.57898   -3085.9659   -2650.7586   -42.097326    12255.186 
   11050    295.65944    247.83682   -3094.5608   -2654.7898   -89.101725    12249.844 
   11100    295.57285    247.76487   -3092.1622     -2652.52   -16.907869    12244.337 
   11150    278.64736     247.2367   -3074.5568   -2660.0899    532.28139    12238.713 
   11200    285.45025    247.39563   -3079.8542   -2655.2686    434.08733    12233.224 
   11250    281.17009    247.21178   -3073.7261   -2655.5069    652.93828    12227.884 
   11300    285.73744    247.33424    -3077.808   -2652.7952    623.90111     12222.74 
   11350    292.34091    247.66008   -3088.6694   -2653.8344    445.48986    12217.797 
   11400    286.90116    247.50893   -3083.6309   -2656.8871    621.72274    12213.003 
   11450    305.91612    248.15492   -3105.1641   -2650.1371    57.686143    12208.381 
   11500    306.48801    248.25646   -3108.5488   -2652.6711    39.747618    12203.687 
   11550     292.8239    247.67923   -3089.3076   -2653.7542    605.25213    12198.912 
   11600    293.32754    247.75733   -3091.9111   -2655.6086    633.93689    12194.298 
   11650    300.86431    247.99901   -3099.9671   -2652.4543    446.38833    12189.881 
   11700     295.6313    247.75395   -3091.7984   -2652.0693    717.41761    12185.601 
   11750    300.96116    248.05943   -3101.9809    -2654.324    550.18048    12181.538 
   11800    302.09069    248.15877   -3105.2924   -2655.9554    399.04007     12177.65 
   11850    305.35899    248.24748   -3108.2493    -2654.051    356.67808    12173.824 
   11900    285.97699    247.56334   -3085.4447   -2660.0756    1046.1449     12170.11 
   11950    308.79222    248.25249   -3108.4165   -2649.1114    400.78376    12166.741 
   12000    300.24399    247.94766   -3098.2553   -2651.6651    694.26804      12163.5 
   12050    302.61741    253.07147   -3102.3822   -2652.2618    693.92161    12160.465 
   12100    291.71276     252.6483   -3088.2766    -2654.376     1060.174    12157.707 
   12150    291.35947    252.54969   -3084.9897   -2651.6146    1084.1227    12155.384 
   12200     312.8773     253.4074   -3113.5801   -2648.1988    360.99016     12153.47 
   12250    291.24723    252.57954   -3085.9847   -2652.7765    1148.4325    12151.717 
   12300    296.85382    252.77167   -3092.3891   -2650.8415    1010.8845     12150.39 
   12350    298.48226    252.88413   -3096.1377    -2652.168    915.57409      12149.5 
   12400    285.86868     252.3744   -3079.1468   -2653.9388     1451.057    12149.009 
   12450    290.13807    252.57244   -3085.7479   -2654.1895      1364.94    12149.124 
   12500    292.65421    252.61566   -3087.1887   -2651.8878    1232.7384    12149.845 
   12550    304.79334    253.14994   -3104.9981   -2651.6411    762.61637     12151.06 
   12600    307.22864    253.12584   -3104.1948   -2647.2155    705.84009    12152.567 
   12650    298.88436    252.87524   -3095.8413   -2651.2734    917.13781    12154.335 
   12700    309.52814    253.22863   -3107.6208   -2647.2212    524.76568    12156.418 
   12750    298.79234    252.79818   -3093.2728   -2648.8419    973.08847     12158.68 
   12800    286.99464    252.36537   -3078.8457   -2651.9629    1459.4733    12161.323 
   12850    291.67663    252.48655   -3082.8848    -2649.038    1250.3199    12164.596 
   12900    295.57242     252.6588   -3088.6268   -2648.9853    1048.6609    12168.399 
   12950    285.85217    252.26406   -3075.4688   -2650.2854    1333.2859     12172.65 
   13000    296.10721    252.61327    -3087.109   -2646.6719    893.18143     12177.44 
   13050    306.45858    247.94052   -3098.0174   -2642.1835    461.64831     12182.55 
   13100    301.02389    247.67875   -3089.2917   -2641.5414    582.24224    12187.765 
   13150    301.79856    247.79221   -3093.0737   -2644.1712    532.28589    12193.114 
   13200    307.24926    247.96762   -3098.9207   -2641.9107    388.01159    12198.581 
   13250    311.42352    248.04124   -3101.3746   -2638.1558    239.26179    12204.086 
   13300    290.73017    247.26409   -3075.4695   -2643.0304    830.65605    12209.589 
   13350    296.79672    247.56362    -3085.454   -2643.9914    491.52171    12215.324 
   13400    314.18033    248.10364   -3103.4548   -2636.1354   -159.52718    12221.145 
   13450    295.36723     247.4178   -3080.5934    -2641.257    447.56999     12226.78 
   13500     303.5511    247.63287   -3087.7625   -2636.2532    222.28153    12232.417 
   13550    294.32425    247.22684   -3074.2281   -2636.4431    481.11399    12238.049 
   13600     296.4733    247.27861   -3075.9537   -2634.9721    508.58646    12243.761 
   13650    284.37418    246.81413   -3060.4711    -2637.486    935.28959    12249.606 
   13700    298.32998    247.31331   -3077.1105   -2633.3673     455.5213    12255.726 
   13750    293.31367    247.16799   -3072.2662   -2635.9844    478.57488    12261.975 
   13800    300.86592    247.44405   -3081.4682    -2633.953    179.40001    12268.295 
   13850     287.7785    246.92883   -3064.2943   -2636.2455    490.35149    12274.586 
   13900    299.58722    247.32357   -3077.4523   -2631.8391    31.691811    12280.902 
   13950     296.8806    247.21852   -3073.9507   -2632.3633    42.983796    12287.096 
   14000    302.23842    247.38976   -3079.6587   -2630.1019   -152.30276    12293.131 
   14050    290.02069    251.86588   -3062.1961   -2630.8123    172.67852    12298.966 
   14100    303.89379    252.31545   -3077.1816   -2625.1626   -241.68187    12304.679 
   14150    297.31895    252.05269   -3068.4229   -2626.1834   -5.3643676    12310.152 
   14200    293.18887    251.89371   -3063.1237   -2627.0275    91.886284    12315.454 
   14250     299.6326    252.05507   -3068.5022   -2622.8214   -219.26026    12320.622 
   14300    303.43553    252.27806   -3075.9355   -2624.5981   -437.46201    12325.531 
   14350    302.87513    252.12395   -3070.7983   -2620.2945   -266.28963    12330.059 
   14400    303.94355    252.07201   -3069.0669   -2616.9739   -135.73135    12334.273 
   14450     293.8949    251.62433   -3054.1442   -2616.9978    167.75788    12338.293 
   14500    295.09401     251.6802   -3056.0067   -2617.0767    18.464785    12342.219 
   14550    293.98848    251.63708   -3054.5694   -2617.2838    -98.45892    12346.004 
   14600      310.086    252.16939   -3072.3131   -2611.0837   -657.87539    12349.547 
   14650    304.71987    251.92141   -3064.0471   -2610.7994   -525.01704    12352.613 
   14700    300.03588    251.69732   -3056.5774   -2610.2968   -381.64647    12355.223 
   14750    295.52516    251.48057   -3049.3524   -2609.7812   -205.78959    12357.472 
   14800    295.32592    251.47189   -3049.0631   -2609.7882   -105.39127    12359.463 
   14850      291.844    251.31988   -3043.9961   -2609.9002     109.4894    12361.258 
   14900    291.20098    251.29305   -3043.1017   -2609.9623     138.4737    12362.942 
   14950     287.8164    251.13077   -3037.6923   -2609.5872    203.83886    12364.564 
   15000    309.52074    251.97936   -3065.9787   -2605.5901    -601.1341    12366.102 
   15050    319.12228     257.2861   -3076.2035   -2601.5333     -918.088    12367.175 
   15100     292.6873     256.3079   -3043.5968   -2608.2466    51.839554    12367.676 
   15150    300.34591    256.53744   -3051.2481   -2604.5063   -58.084145    12368.006 
   15200     307.4385    256.89862   -3063.2875    -2605.996   -274.85419    12368.173 
   15250    299.21473    256.47085   -3049.0282    -2603.969    191.96934    12368.088 
   15300    292.74783     256.2656   -3042.1865   -2606.7463    492.37144    12367.965 
   15350    294.47027    256.23315    -3041.105   -2603.1028    458.29898    12367.977 
   15400    296.32479    256.29174   -3043.0581   -2602.2975    355.24068    12368.111 
   15450    310.21712    256.73742   -3057.9139   -2596.4895   -91.516388    12368.274 
   15500    294.08923    256.10997   -3036.9989   -2599.5635    404.28077    12368.314 
   15550     312.2665    256.67671   -3055.8903   -2591.4175    -172.8256    12368.379 
   15600    300.01092    256.11494   -3037.1648   -2590.9213    304.33977    12368.276 
   15650    292.23201     255.9596   -3031.9865   -2597.3136    519.73419    12368.183 
   15700    297.10261    256.05131   -3035.0437   -2593.1261    353.07387    12368.237 
   15750    290.71028    255.81254   -3027.0846   -2594.6751    505.96485    12368.373 
   15800    305.72948    256.31232   -3043.7439   -2588.9944  -0.10864082    12368.611 
   15850    294.15431    255.81506   -3027.1686   -2589.6364    516.38187     12368.78 
   15900    294.36582    255.80288   -3026.7627   -2588.9159    583.95501      12369.1 
   15950    312.06017    256.46567   -3048.8558   -2584.6899   -52.011553    12369.562 
   16000    299.39255    255.92284   -3030.7612   -2585.4375    384.23173    12369.904 
   16050     314.2927    256.33667   -3044.5556   -2577.0691    7.4345479    12370.282 
   16100    309.17892    256.18161    -3039.387   -2579.5068    261.45883    12370.565 
   16150    298.41469    255.77999   -3025.9998   -2582.1306    614.63087    12370.867 
   16200    310.79667    256.23145   -3041.0482   -2578.7617    179.30381    12371.321 
   16250    301.09487    255.82424   -3027.4745   -2579.6187    448.28569    12371.779 
   16300    309.67792    256.12565   -3037.5217   -2576.8993    244.12396    12372.315 
   16350    306.58116    255.98381   -3032.7936   -2576.7773    498.79389    12372.871 
   16400    309.15125    256.05158   -3035.0525   -2575.2135    495.92051    12373.559 
   16450    316.33306    256.27675   -3042.5585    -2572.037    200.86142     12374.37 
   16500    307.22264     255.9433   -3031.4432   -2574.4728    422.00803    12375.192 
   16550    311.02338    256.04036   -3034.6786   -2572.0549    337.79259    12376.089 
   16600    313.67136    256.17007   -3039.0025   -2572.4401    272.07307    12377.048 
   16650    307.36045    255.90997   -3030.3324    -2573.157    518.85185    12378.041 
   16700    300.03843    255.66058   -3022.0194    -2575.735     721.1718    12379.193 
   16750    305.82784    255.89412   -3029.8041   -2574.9083    432.52292    12380.593 
   16800    323.03917    256.49344   -3049.7813    -2569.285   -109.93559    12382.039 
   16850    301.92217    255.69946   -3023.3152   -2574.2289    660.22656    12383.359 
   16900     300.9108    255.66085   -3022.0283   -2574.4463     847.1967    12384.871 
   16950      310.091    256.03819   -3034.6065   -2573.3696    532.31239    12386.694 
   17000    306.63967    255.92018   -3030.6728   -2574.5696    621.93746    12388.705 
   17050    311.42693    256.10956   -3036.9853   -2573.7614    441.34206    12390.904 
   17100    316.64811    256.22277   -3040.7591   -2569.7691     154.5123    12393.216 
   17150    316.22119    256.27375   -3042.4584   -2572.1033     121.0703    12395.476 
   17200    296.46559    255.54875   -3018.2916   -2577.3215    785.11515    12397.716 
   17250    299.31912    255.72354   -3024.1182   -2578.9037    527.62556    12400.222 
   17300    318.45074     256.3569   -3045.2299   -2571.5586   -92.847345    12402.857 
   17350    309.65489    256.00466   -3033.4886   -2572.9004    305.35119    12405.352 
   17400    301.11681    255.72009   -3024.0029   -2576.1145    593.92526    12407.872 
   17450     310.8783    256.10172   -3036.7239    -2574.316     182.5142    12410.539 
   17500    314.75127    256.21034   -3040.3446   -2572.1759    1.6022036    12413.181 
   17550    299.84676    255.68202    -3022.734   -2576.7347    508.81388    12415.705 
   17600    300.76132    255.70895   -3023.6316    -2576.272    461.94113    12418.357 
   17650    314.57073      256.236   -3041.1999   -2573.2997   -123.80433    12421.112 
   17700    294.17105     255.4869   -3016.2301   -2578.6729    471.91008    12423.727 
   17750    302.55407    255.72642   -3024.2139   -2574.1876    294.82685    12426.413 
   17800    314.89274    256.18201   -3039.4003   -2571.0212   -149.04365    12429.111 
   17850    304.74234    255.79617   -3026.5389   -2573.2578    32.552854    12431.622 
   17900    295.95125    255.53084   -3017.6946   -2577.4895    235.31043    12433.994 
   17950     290.2592    255.41457   -3013.8191   -2582.0805    326.58105    12436.354 
   18000    298.27749    255.66871   -3022.2903   -2578.6251    5.3361256    12438.745 
   18050    306.70992    251.13068   -3037.6893   -2581.4815   -411.00167    12440.984 
   18100    307.17751    251.14353   -3038.1177   -2581.2145    -488.7401    12442.856 
   18150    313.90087    251.42866   -3047.6219   -2580.7181   -724.18013    12444.276 
   18200    304.70544    251.21309   -3040.4363   -2587.2101   -463.05914    12445.153 
   18250    291.16771      250.729   -3024.3001   -2591.2102   -67.535977    12445.637 
   18300    307.99258    251.38286   -3046.0954   -2587.9798   -638.04684    12445.878 
   18350    301.97355    251.24517   -3041.5058    -2592.343   -441.47086    12445.657 
   18400    294.28431    251.01372   -3033.7908   -2596.0652   -151.40675    12445.041 
   18450    291.52771    250.89798   -3029.9326   -2596.3072   -113.11094    12444.185 
   18500    297.60124    251.17477   -3039.1588   -2596.4996   -452.55702    12443.096 
   18550     295.8089    251.14622   -3038.2073    -2598.214   -449.21656    12441.625 
   18600    283.37462    250.60013   -3020.0044   -2598.5061    13.113787    12439.794 
   18650      304.046    251.44236   -3048.0788   -2595.8334   -694.53088    12437.751 
   18700    297.01258    251.26771   -3042.2568   -2600.4731    -547.1325    12435.235 
   18750    289.01887    251.10647   -3036.8823   -2606.9886     -337.416    12432.262 
   18800    290.31485     251.1885   -3039.6168   -2607.7954   -418.81609    12428.935 
   18850     287.6335    251.13485   -3037.8284   -2609.9954    -352.7737    12425.253 
   18900    295.33913    251.39769   -3046.5897   -2607.2952   -583.07207    12421.217 
   18950    293.39299    251.37431   -3045.8104   -2609.4106   -519.51278    12416.714 
   19000    290.34445     251.2521   -3041.7365   -2609.8712   -403.96902    12411.794 
   19050    302.47389    251.72542   -3057.5139   -2607.6069   -798.35959    12406.478 
   19100    305.78879    251.87091   -3062.3635   -2607.5259   -934.70292     12400.58 
   19150    281.81961    251.01123   -3033.7076   -2614.5223   -39.752076    12394.074 
   19200    277.07681    250.83942   -3027.9808     -2615.85    274.48457    12387.397 
   19250    299.34529    251.73207   -3057.7358   -2612.4824   -448.32249     12380.68 
   19300    281.80035    251.19412   -3039.8039   -2620.6473    190.62739    12373.653 
   19350    289.40763    251.44293   -3048.0976   -2617.6257    98.169094    12366.558 
   19400    291.36925    251.61757   -3053.9191   -2620.5295    31.979513      12359.4 
   19450    296.19489    251.66966   -3055.6554    -2615.088    48.600061    12352.125 
   19500    291.06576    251.45832   -3048.6106   -2615.6724    274.84682    12344.773 
   19550    299.39714    251.84465   -3061.4883   -2616.1578   -49.229869    12337.412 
   19600    290.37125    251.54532   -3051.5107   -2619.6055     279.5359    12329.937 
   19650    297.25993    251.86744    -3062.248   -2620.0963    125.53785    12322.461 
   19700    298.54273    251.90954   -3063.6512   -2619.5915    177.60703    12314.932 
   19750    291.41104    251.70585   -3056.8616   -2623.4098    462.98012     12307.38 
   19800    295.44736    251.83667   -3061.2222   -2621.7667    341.29509     12299.94 
   19850    296.89661    251.90566    -3063.522   -2621.9108    361.40576    12292.566 
   19900    298.34912    251.92263   -3064.0876   -2620.3159    441.27069    12285.282 
   19950    307.49407    252.25673   -3075.2242   -2617.8501    244.06682    12278.091 
   20000    305.95581    252.24702   -3074.9006   -2619.8145    370.10649     12270.93 
   20050    304.31428    257.12309   -3070.7695   -2618.1251    596.24748    12263.857 
   20100    290.88688    256.63553   -3054.5178   -2621.8456    1076.8357    12257.019 
   20150    292.04945    256.81863   -3060.6209   -2626.2195    1036.4629    12250.621 
   20200      291.262    256.81972   -3060.6575   -2627.4273     1143.404    12244.698 
   20250    301.40029    257.02067   -3067.3556   -2619.0455    916.92065    12239.295 
   20300    316.23923    257.64625   -3088.2085   -2617.8266    362.94701    12234.247 
   20350    307.77046    257.44655   -3081.5518   -2623.7665    592.46034    12229.327 
   20400    311.30992    257.57258   -3085.7526   -2622.7027     565.0106    12224.582 
   20450    304.33614    257.37053   -3079.0176   -2626.3406     885.5032    12220.036 
   20500    293.36242    257.09245   -3069.7483    -2633.394      1247.27    12215.865 
   20550     281.1577     256.6177   -3053.9232   -2635.7225    1708.8896    12212.279 
   20600    287.67634    256.82201   -3060.7338   -2632.8371    1502.0762    12209.483 
   20650    303.25396    257.42711   -3080.9038   -2629.8365    903.07643     12207.38 
   20700    308.02438    257.62458    -3087.486   -2629.3231     679.9644    12205.659 
   20750    307.34787    257.60247   -3086.7489   -2629.5922    711.47284    12204.192 
   20800    296.74432    257.22818   -3074.2726   -2632.8879    1063.3001    12203.009 
   20850    282.81224    256.75621   -3058.5402   -2637.8784    1535.3657     12202.29 
   20900    287.95926    256.99011    -3066.337   -2638.0194    1313.9905    12202.255 
   20950    299.31338    257.40555   -3080.1849   -2634.9789    869.12077    12202.807 
   21000    298.15021    257.39317   -3079.7722   -2636.2963    837.77405    12203.723 
   21050    296.78823    257.42748   -3080.9162   -2639.4662    899.14053    12204.957 
   21100    289.93217    257.23709   -3074.5696   -2643.3175    1184.5944    12206.562 
   21150    293.36256    257.39736   -3079.9122   -2643.5576    1049.7789     12208.67 
   21200    297.78031     257.6253   -3087.5101   -2644.5844    763.64289    12211.217 
   21250    290.88833    257.42002   -3080.6675   -2647.9931    789.11573    12214.084 
   21300    294.29715    257.62508   -3087.5026   -2649.7579    560.96655    12217.237 
   21350    295.75572    257.73948   -3091.3158   -2651.4016    407.36461    12220.562 
   21400    286.59608    257.41759   -3080.5863   -2654.2963    527.76549    12224.015 
   21450    284.46031    257.36589   -3078.8631     -2655.75    507.74413    12227.622 
   21500     295.2397    257.87066   -3095.6887    -2656.542    87.044165    12231.326 
   21550    280.66793    257.36181   -3078.7269   -2661.2546    444.24958    12234.999 
   21600    288.13621    257.69339   -3089.7796   -2661.1989     109.7076    12238.743 
   21650    279.33302    257.44209    -3081.403   -2665.9163    371.82655    12242.469 
   21700     274.6301    257.26424   -3075.4747   -2666.9832    526.33638    12246.263 
   21750    272.11871    257.12985    -3070.995    -2666.239    508.42463    12250.222 
   21800    285.12573    257.58832   -3086.2773   -2662.1744   -42.145831    12254.304 
   21850    281.48298    257.43746   -3081.2488   -2662.5642    2.3998931    12258.277 
   21900    281.24919    257.50445   -3083.4816   -2665.1447   -53.589528    12262.113 
   21950    272.72119    257.24976   -3074.9919   -2669.3398    107.19472    12265.815 
   22000    283.96297    257.72405   -3090.8017   -2668.4283   -251.99765    12269.408 
   22050    273.23549    257.30219   -3076.7396   -2670.3225    115.96887    12272.806 
   22100    280.21238    257.51876   -3083.9586   -2667.1639   -105.36142    12276.097 
   22150    281.82862    257.54209   -3084.7365   -2665.5378   -175.21216    12279.219 
   22200    272.91555    257.20236   -3073.4119   -2667.4707    147.65814    12282.146 
   22250    275.52359    257.24437   -3074.8124   -2664.9919    53.476606    12285.015 
   22300    297.45442     258.0294   -3100.9801   -2658.5392   -684.27573    12287.746 
   22350    289.09795    257.67952   -3089.3173    -2659.306   -372.50579    12290.033 
   22400    269.71751    256.92692   -3064.2308   -2663.0464    261.00078    12292.011 
   22450    282.56714    257.35613   -3078.5378   -2658.2406   -150.86738    12293.941 
   22500    283.60336    257.47047    -3082.349   -2660.5105   -329.16933    12295.699 
   22550    293.72249    257.69646    -3089.882   -2652.9921   -697.06726    12297.127 
   22600    276.98719    257.12479   -3070.8265    -2658.829   -119.28628     12298.09 
   22650    264.22483    256.70468   -3056.8226   -2663.8081     402.2157    12298.845 
   22700    263.34126    256.64679   -3054.8932    -2663.193     534.0447      12299.7 
   22750    278.21596    257.18365   -3072.7883   -2658.9631    67.945248    12300.714 
   22800    289.06753    257.50086   -3083.3619   -2653.3959   -241.19791    12301.649 
   22850    279.77695    257.06151    -3068.717     -2652.57    174.76397    12302.372 
   22900    282.61983    257.17521    -3072.507   -2652.1314    75.527207    12303.035 
   22950    286.42335    257.20506   -3073.5022   -2647.4691   -119.95117     12303.62 
   23000    289.70204    257.23273   -3074.4242   -2643.5144   -222.37768    12304.015 
   23050    288.48443    257.02259   -3067.4197    -2638.321    -103.0943     12304.17 
   23100    294.32438    257.14593    -3071.531   -2633.7458   -153.48263    12304.134 
   23150    298.38279    257.28971   -3076.3236   -2632.5019   -106.58165    12303.887 
   23200    293.95868    257.13618   -3071.2061   -2633.9648    68.614861    12303.454 
   23250    297.08075    257.20031   -3073.3437   -2631.4587   -64.455465    12302.902 
   23300    282.12463    256.60517   -3053.5055   -2633.8665    394.76718    12302.231 
   23350    285.99951    256.75999   -3058.6662   -2633.2637    354.64436    12301.627 
   23400    286.84299     256.7047   -3056.8234   -2630.1662    524.76963    12301.115 
   23450    286.35743    256.62867    -3054.289   -2628.3541    618.62489    12300.753 
   23500    294.53557    256.98744   -3066.2478   -2628.1485    195.75839    12300.576 
   23550    300.18953    257.19678   -3073.2259   -2626.7167   -10.065881     12300.39 
   23600    298.86415    257.01243    -3067.081   -2622.5432    206.37208    12300.098 
   23650    297.19171    256.96004   -3065.3348   -2623.2847    376.75261    12299.789 
   23700    301.11052    257.08446    -3069.482   -2621.6029    332.70832    12299.539 
   23750    295.12198    256.80917   -3060.3056    -2621.334    486.29959    12299.372 
   23800    296.61287    256.84482   -3061.4939   -2620.3047    399.39719    12299.333 
   23850    301.30687    257.04781   -3068.2604   -2620.0893    257.51129    12299.363 
   23900    296.83216    256.77994   -3059.3314   -2617.8161    450.82835    12299.432 
   23950    291.67617     256.4951   -3049.8367   -2615.9905    595.90415    12299.623 
   24000    306.47965    256.96871   -3065.6235   -2609.7583    88.262176    12299.967 
   24050    302.00308    256.84901   -3061.6338   -2612.4271    233.20291    12300.271 
   24100    293.06573    256.62044   -3054.0146   -2618.1015    614.91124    12300.561 
   24150    282.90853    256.29084    -3043.028    -2622.223    999.61813    12301.074 
   24200    295.18704    256.77568   -3059.1893    -2620.121     570.2284    12301.967 
   24250    302.09429    256.92458   -3064.1526   -2614.8102    260.42833    12303.061 
   24300    310.18045    257.13901   -3071.3003   -2609.9304    -4.397547    12304.161 
   24350    301.79372    256.76946    -3058.982   -2610.0867     369.9199    12305.164 
   24400    300.65964    256.76535    -3058.845   -2611.6366    432.35727    12306.222 
   24450    298.52412    256.70376   -3056.7919   -2612.7599    522.61138    12307.392 
   24500    301.98705    256.81682   -3060.5605   -2611.3777    425.50078    12308.714 
   24550    311.26515    257.19972    -3073.324   -2610.3406    55.561783    12310.115 
   24600    291.52759    256.38159   -3046.0532   -2612.4279    669.01332    12311.475 
   24650    290.27559    256.34449   -3044.8163   -2613.0534    693.30492    12313.042 
   24700    301.06935    256.76117   -3058.7056   -2610.8877    336.96398    12314.849 
   24750    295.50754    256.40342   -3046.7807   -2607.2356    607.63044    12316.752 
   24800    288.11829    256.17379   -3039.1263   -2610.5722     850.0871    12318.857 
   24850    296.22889    256.51724   -3050.5746   -2609.9566     561.2495    12321.287 
   24900    288.60902    256.21618   -3040.5392   -2611.2552    796.35087    12323.933 
   24950    291.14259    256.32488   -3044.1628   -2611.1102    665.70244    12326.864 
   25000    306.79601    256.81334   -3060.4445   -2604.1087    186.31725    12330.018 
   25050     302.0964    251.55257   -3051.7522   -2602.4067    461.29223     12333.18 
   25100    300.56555    251.46687   -3048.8955    -2601.827    494.19106    12336.436 
   25150    308.84054     251.7596   -3058.6533   -2599.2764    112.84176    12339.784 
   25200    301.09202    251.51684   -3050.5614   -2602.7099    302.69695    12343.073 
   25250    308.53719    251.76875   -3058.9582   -2600.0325    60.776823    12346.357 
   25300    301.08235    251.50248   -3050.0826   -2602.2455    288.54107    12349.563 
   25350    312.96336    251.76765   -3058.9218   -2593.4126   -106.51188    12352.734 
   25400    306.92366    251.44186    -3048.062   -2591.5363    43.816153    12355.728 
   25450    294.02508      250.989   -3032.9665   -2595.6265    431.46519    12358.596 
   25500    311.07239    251.68615   -3056.2048   -2593.5082   -160.60819     12361.51 
   25550    311.08103    251.69886   -3056.6285   -2593.9191   -143.68782    12364.213 
   25600    300.36616    251.23827   -3041.2757   -2594.5038    267.28718    12366.704 
   25650     295.6824    251.05897   -3035.2989   -2595.4938    397.27904    12369.182 
   25700    286.89109    250.71464   -3023.8212   -2597.0924    604.05402     12371.74 
   25750    291.69226    250.91835   -3030.6116   -2596.7415    384.52545    12374.481 
   25800    310.45141    251.58598    -3052.866    -2591.093   -198.72121    12377.277 
   25850    308.33855    251.47707   -3049.2358   -2590.6055   -92.191763    12379.854 
   25900    299.18205    251.20148   -3040.0494   -2595.0387    152.07532    12382.225 
   25950    293.44428    250.90004   -3030.0014   -2593.5253     366.9215     12384.54 
   26000     292.4842    250.76018   -3025.3395   -2590.2914    432.05682    12386.912 
   26050    296.14621    255.87177   -3029.0592   -2588.5641    185.57163    12389.367 
   26100    300.51896    256.11131   -3037.0436   -2590.0444   -28.302098    12391.805 
   26150    303.58181     256.1968   -3039.8933   -2588.3383    -29.03059    12394.102 
   26200    287.29864    255.64127   -3021.3757   -2594.0407     498.3968    12396.281 
   26250    297.43327    256.04945   -3034.9816   -2592.5722    189.66514    12398.535 
   26300    296.58587    255.95857   -3031.9522   -2590.8032     203.8916    12400.786 
   26350    299.66043       255.94   -3031.3334   -2585.6113    138.81507    12403.027 
   26400    294.28621    255.77183   -3025.7276   -2587.9992    267.64062    12405.237 
   26450    306.70922     256.0893   -3036.3099   -2580.1031   -155.51168    12407.437 
   26500     309.4957    256.14846   -3038.2819   -2577.9305   -305.45546    12409.422 
   26550    295.39916    255.58628   -3019.5425   -2580.1587    237.60061    12411.131 
   26600    296.80233    255.56157   -3018.7189   -2577.2479    283.46221     12412.82 
   26650    291.29996    255.35071   -3011.6905   -2578.4038    482.14952    12414.545 
   26700    300.96148    255.74971   -3024.9905   -2577.3331    224.04645    12416.378 
   26750     312.6113    256.15731   -3038.5771   -2573.5915   -59.302733    12418.209 
   26800    302.35862    255.65704   -3021.9014   -2572.1659    308.58359    12419.921 
   26850    305.81479    255.80432   -3026.8107   -2571.9343    147.39492    12421.636 
   26900    300.13107    255.52069   -3017.3562    -2570.934    405.37339    12423.322 
   26950     310.2846    255.80683   -3026.8943   -2565.3695    210.83033    12425.065 
   27000    296.57388    255.18563   -3006.1876   -2565.0565    704.26647     12426.84 
   27050    307.14711    260.58121   -3019.3737   -2562.5157    320.57122    12428.833 
   27100    307.51678    260.49539   -3016.5131   -2559.1052    268.73625    12430.913 
   27150    294.04726    259.96737   -2998.9125   -2561.5395    796.84626    12433.034 
   27200    292.72615    259.94887   -2998.2956   -2562.8876    912.16932     12435.46 
   27250    301.84306    260.22483   -3007.4942   -2558.5256    635.33361    12438.254 
   27300    303.79972    260.37236    -3012.412    -2560.533    514.80978    12441.308 
   27350    306.29042    260.36664   -3012.2214   -2556.6376    461.89216    12444.563 
   27400    320.02129    260.84749   -3028.2496   -2552.2422    13.393969    12447.935 
   27450    316.20372    260.68558   -3022.8527   -2552.5237    72.277815    12451.236 
   27500    314.22237    260.60301   -3020.1003   -2552.7184    71.538136    12454.447 
   27550    317.72747    260.59455   -3019.8185    -2547.223    101.83223    12457.568 
   27600    315.54088    260.50738   -3016.9126   -2547.5694    233.18645    12460.634 
   27650    307.86058    260.15233   -3005.0776   -2547.1583    446.85478    12463.727 
   27700    309.93352    260.24072   -3008.0239   -2547.0213    408.06547    12466.931 
   27750     315.3998    260.38747   -3012.9157   -2543.7824    199.91832    12470.247 
   27800     321.8776    260.52042   -3017.3475    -2538.579   -74.959831    12473.543 
   27850    310.51702     260.0898   -3002.9932   -2541.1227    331.36609    12476.694 
   27900    301.03168    259.67334   -2989.1112   -2541.3494    752.76584    12479.919 
   27950    300.17246    259.65813   -2988.6045   -2542.1207    816.55838    12483.437 
   28000    300.52758    259.69068   -2989.6892   -2542.6772    765.53917    12487.286 
   28050    308.01765    264.96064   -2998.6881   -2540.5352    482.18033    12491.443 
   28100     301.3515    264.72152   -2990.7174   -2542.4799    689.10006    12495.804 
   28150     295.2809    264.40521   -2980.1735   -2540.9655    851.44417    12500.457 
   28200    315.12216     265.1592   -3005.3068   -2536.5865    62.607611    12505.432 
   28250    305.91677     264.7306   -2991.0198   -2535.9918    343.07717    12510.409 
   28300    297.84096    264.37748   -2979.2495   -2536.2336    638.65471    12515.481 
   28350    312.83586    265.03837   -3001.2791   -2535.9595     132.1845    12520.756 
   28400    311.37517    264.91901   -2997.3004   -2534.1534    185.04544    12526.035 
   28450    306.07817    264.58776   -2986.2586   -2530.9905    356.10351    12531.342 
   28500    311.25665      264.836   -2994.5333   -2531.5626    118.63133     12536.72 
   28550    311.48405    264.90698   -2996.8994   -2533.5905    10.690724    12542.077 
   28600    328.09668     265.5746   -3019.1532   -2531.1342   -663.99818    12547.285 
   28650    318.59989    265.03952   -3001.3175   -2527.4243   -394.73345    12552.062 
   28700    298.11741    264.34556   -2978.1852   -2534.7582    276.81445    12556.523 
   28750    296.24273    264.25504   -2975.1679   -2534.5293    311.57934    12561.009 
   28800    313.38336    264.95942   -2998.6472   -2532.5132    -403.5743    12565.524 
   28850    299.50146    264.42491   -2980.8305   -2535.3448   -10.443941    12569.786 
   28900    293.25396    264.19998   -2973.3327   -2537.1397    234.25736    12573.921 
   28950    280.39936    263.69934   -2956.6445   -2539.5717    681.11918     12578.11 
   29000    300.00007    264.42749   -2980.9162   -2534.6888    3.1586401    12582.505 
   29050    294.15709    264.19072   -2973.0241   -2535.4878    113.26525     12586.86 
   29100    292.84051     264.0685   -2968.9501   -2533.3721    135.28616    12591.161 
   29150      285.987    263.92915   -2964.3049   -2538.9209    284.63884    12595.452 
   29200    297.80092    264.25239   -2975.0795   -2532.1232   -130.04549     12599.77 
   29250    295.26182    264.17252   -2972.4173   -2533.2378   -150.73392    12603.931 
   29300    294.13469    264.13581   -2971.1935   -2533.6905   -79.374703    12607.896 
   29350    284.84823    263.77749   -2959.2495   -2535.5594    217.28145    12611.734 
   29400    292.03135    264.03134   -2967.7112   -2533.3367   -53.474341    12615.555 
   29450    286.66489     263.8015   -2960.0499   -2533.6576    5.8615042    12619.272 
   29500    296.12031    264.18552   -2972.8505    -2532.394     -365.437    12622.852 
   29550    289.81838     263.8842   -2962.8068   -2531.7239   -165.95394    12626.154 
   29600    299.77056    264.24132   -2974.7105   -2528.8246   -525.45338    12629.204 
   29650    285.62818    263.84558   -2961.5194   -2536.6692   -177.72956    12631.893 
   29700    298.47358    264.24508   -2974.8361   -2530.8792   -567.89815    12634.319 
   29750    303.44618    264.45211    -2981.737   -2530.3838   -766.69872    12636.333 
   29800    302.97121     264.4106   -2980.3532   -2529.7065    -742.5817    12637.796 
   29850     293.5848    263.97339   -2965.7798   -2529.0946   -422.50201    12638.736 
   29900    302.64075    264.24141   -2974.7136   -2524.5584   -586.89786    12639.277 
   29950    289.62129    263.78923   -2959.6409   -2528.8511   -41.109283    12639.419 
   30000    296.11835    264.00164   -2966.7214   -2526.2678   -151.00247    12639.366 
   30050    295.57517    263.91792   -2963.9307    -2524.285   -59.115156    12639.139 
   30100    304.98204    264.21381   -2973.7937    -2520.156   -278.08191    12638.753 
   30150    310.30649    264.40999   -2980.3329   -2518.7755   -414.42215    12638.085 
   30200    296.76459    263.79611   -2959.8702   -2518.4554    54.060429    12637.097 
   30250    290.78679    263.52752   -2950.9172   -2518.3939    307.53347    12636.017 
   30300     290.5303     263.5136   -2950.4533   -2518.3115    423.77142    12635.003 
   30350    294.99345    263.65491   -2955.1635   -2516.3831     342.4858    12634.123 
   30400    300.42359    263.76549   -2958.8496   -2511.9922    244.20829    12633.322 
   30450    295.15697    263.39433   -2946.4777   -2507.4541    576.58193    12632.586 
   30500     304.8611    263.82294   -2960.7647   -2507.3069     381.8471    12632.037 
   30550    311.62209    263.89647   -2963.2156   -2499.7014    293.95053    12631.598 
   30600    305.51077    263.57104   -2952.3678   -2497.9437    554.13725    12631.241 
   30650      313.122    263.81843   -2960.6144   -2494.8692    275.92696    12631.058 
   30700    315.09269    263.87099   -2962.3662   -2493.6897    156.06624     12630.94 
   30750    316.42353    263.87142   -2962.3805   -2491.7245    132.14706    12630.795 
   30800       302.01    263.29074   -2943.0248   -2493.8078    622.27313    12630.634 
   30850     294.6241    262.98968   -2932.9894   -2494.7584    845.65497    12630.714 
   30900    320.17831    263.92711    -2964.237   -2487.9961   0.69376801    12631.091 
   30950    311.56729    263.54789   -2951.5965   -2488.1637    277.43167    12631.432 
   31000    317.18822     263.7427   -2958.0899   -2486.2965     151.8426     12631.79 
   31050    316.75369    263.54939   -2951.6464   -2480.4993    285.15108    12632.133 
   31100    315.24576    263.48776   -2949.5919   -2480.6878     295.2519     12632.51 
   31150    334.49467    264.23238   -2974.4127   -2476.8772   -349.47515    12632.896 
   31200    323.90744    263.85148    -2961.716   -2479.9283    41.864805    12633.016 
   31250    322.22167    263.88956   -2962.9853    -2483.705    97.479803    12633.002 
   31300    320.08986    263.80789   -2960.2629   -2484.1535    54.135805    12632.944 
   31350    318.92898    263.70155   -2956.7183   -2482.3356    57.003277    12632.794 
   31400    310.51661    263.35815   -2945.2716   -2483.4017    411.16569     12632.58 
   31450    307.17198    263.23143   -2941.0477   -2484.1526    660.13788    12632.482 
   31500    312.73473    263.45933   -2948.6444   -2483.4752    501.08574    12632.627 
   31550    311.77181    263.58794   -2952.9314   -2489.1944    404.01417     12632.96 
   31600    315.74855    263.83799   -2961.2664   -2491.6144    201.01014    12633.408 
   31650    313.85498    263.61652   -2953.8842   -2487.0487    285.96562    12633.883 
   31700    312.66756    263.62696   -2954.2321   -2489.1628    313.49269    12634.396 
   31750    325.04059    264.13416   -2971.1386   -2487.6654   -149.34045    12634.928 
   31800    307.79176    263.45156   -2948.3853   -2490.5684    380.17482    12635.335 
   31850     314.5362    263.73219   -2957.7397    -2489.891    218.38608    12635.801 
   31900    307.55694    263.51704   -2950.5682   -2493.1005    466.16604    12636.306 
   31950    306.57043    263.42386   -2947.4619   -2491.4616    528.96811    12636.954 
   32000    307.96468    263.59164   -2953.0546   -2494.9804    412.14285    12637.793 
   32050    317.94454    263.94497   -2964.8322   -2491.9138    69.351892    12638.746 
   32100    316.23909    263.83567   -2961.1889   -2490.8072    40.949428    12639.662 
   32150    319.15287      264.113   -2970.4333   -2495.7176   -224.32483    12640.459 
   32200    314.05218    263.90588   -2963.5293   -2496.4005   -36.363353    12641.023 
   32250    296.44635    263.35442   -2945.1473   -2504.2058    519.87923    12641.478 
   32300     308.7446    263.92393    -2964.131   -2504.8968    13.979898    12642.049 
   32350     302.2524    263.66281   -2955.4269   -2505.8494    107.53279    12642.556 
   32400    308.62367     263.9925   -2966.4168   -2507.3625   -196.55953    12642.986 
   32450    309.21807     264.0543   -2968.4767   -2508.5382   -241.44451    12643.202 
   32500    293.32321    263.53015   -2951.0051   -2514.7091    247.42834    12643.196 
   32550    302.08462    263.99383    -2966.461    -2517.133   -46.423041    12643.185 
   32600    300.29414    263.90457   -2963.4857   -2516.8209     74.89539    12643.092 
   32650    296.65848    263.78471   -2959.4902   -2518.2332    322.00338    12642.927 
   32700    296.02777    263.87394   -2962.4646   -2522.1458    330.25093    12642.829 
   32750    313.05468    264.55413   -2985.1377   -2519.4926   -411.85739    12642.782 
   32800    316.82754     264.7673   -2992.2434   -2520.9864   -780.09654    12642.399 
   32850    311.89573    264.58745   -2986.2485   -2522.3272   -736.43604    12641.474 
   32900    310.49697    264.50862   -2983.6206   -2521.7799   -689.44601    12639.982 
   32950    303.76466    264.23002   -2974.3339    -2522.507   -395.89933    12637.983 
   33000    297.76555    264.22339   -2974.1131   -2531.2094   -230.10117    12635.626 
   33050    280.55878    263.53502   -2951.1672   -2533.8573    362.58203     12633.05 
   33100    293.53778    264.10519   -2970.1731   -2533.5579   -56.148171    12630.506 
   33150    305.46854    264.45261   -2981.7536   -2527.3923   -416.49841    12627.823 
   33200    315.29157    264.92008    -2997.336   -2528.3636   -807.10482    12624.773 
   33250     307.2867    264.66849   -2988.9498   -2531.8841   -518.81361    12621.151 
   33300     287.0002    263.93833   -2964.6111     -2537.72    230.83749    12617.127 
   33350    307.06074    264.69323   -2989.7744   -2533.0448   -345.67179    12613.028 
   33400    299.98144    264.49952   -2983.3174   -2537.1177   -220.86837    12608.655 
   33450    307.48035    264.81176   -2993.7252   -2536.3715   -460.41606    12603.999 
   33500    295.38275    264.39188   -2979.7294   -2540.3699    40.042019    12599.002 
   33550    290.34532     264.1592   -2971.9732   -2540.1065    324.32669    12593.882 
   33600    297.24928    264.53908   -2984.6359   -2542.5001   -13.615437     12588.81 
   33650    307.89111    264.89441   -2996.4805   -2538.5158   -411.66983    12583.598 
   33700    289.92882    264.28859   -2976.2863   -2545.0392     140.1733    12578.074 
   33750       284.49    264.16779   -2972.2595   -2549.1022    287.91746    12572.483 
   33800    297.60464    264.72288   -2990.7628   -2548.0985   -72.198792    12566.911 
   33850    294.98644    264.60704   -2986.9012   -2548.1312    133.94243    12561.218 
   33900     300.8703    264.89562   -2996.5208    -2548.999    61.666829    12555.451 
   33950    302.59573    264.83509    -2994.503   -2544.4148    175.34885    12549.609 
   34000    299.75929    264.76781   -2992.2602    -2546.391    341.79304    12543.751 
   34050     299.9003    264.77822   -2992.6074   -2546.5285    297.15537    12537.945 
   34100    306.43809    264.94975   -2998.3249   -2542.5215    58.526167     12532.18 
   34150    313.58262    265.22289   -3007.4298   -2540.9994   -195.78464    12526.322 
   34200     302.4593     264.9473   -2998.2433    -2548.358    136.36768     12520.25 
   34250    297.21559    264.66627   -2988.8758   -2546.7902      438.376    12514.122 
   34300    291.86064    264.52886   -2984.2953   -2550.1747    639.77778    12508.126 
   34350    296.99628    264.88973   -2996.3244   -2554.5649    475.38813    12502.351 
   34400    305.17306     265.1895   -3006.3166   -2552.3948    329.83767    12496.725 
   34450    307.09312    265.27936    -3009.312   -2552.5343    402.95951    12491.179 
   34500    281.77541    264.29494    -2976.498   -2557.3784    1209.2842    12485.799 
   34550    301.86652    265.10818   -3003.6059   -2554.6024    490.84746    12480.878 
   34600    283.28938     264.3868   -2979.5601   -2558.1886    1019.9686    12476.228 
   34650    307.76857    265.38746   -3012.9152   -2555.1328    173.76209    12471.922 
   34700    302.06664    265.09759    -3003.253   -2553.9518    444.60574    12467.692 
   34750    301.35771     265.0444     -3001.48   -2553.2332    619.30198    12463.573 
   34800    304.68693     265.2056   -3006.8533   -2553.6546     510.5668     12459.68 
   34850    308.46776    265.40674   -3013.5579   -2554.7355    389.56282    12455.954 
   34900    295.41975    264.92839   -2997.6131   -2558.1986    874.13959    12452.374 
   34950    310.26492     265.4524   -3015.0802   -2553.5846    499.50439    12449.099 
   35000    287.39073    264.65129   -2988.3764   -2560.9044    1235.4047    12446.078 
   35050      306.797    260.46162   -3015.3874   -2559.0501    516.79478    12443.553 
   35100    306.29127    260.42537   -3014.1792   -2558.5941    478.13321    12441.253 
   35150    289.45048    259.87926   -2995.9753   -2565.4397    1003.8525    12439.142 
   35200    322.36833    261.13872   -3037.9572   -2558.4587   -27.481551    12437.358 
   35250    300.57688    260.22656   -3007.5522   -2560.4668     758.1003    12435.557 
   35300    304.31399    260.45091   -3015.0303   -2562.3863    635.53809    12433.974 
   35350    309.13226    260.61283   -3020.4276   -2560.6168    363.05205    12432.624 
   35400    306.58333    260.61036   -3020.3454    -2564.326    396.66595     12431.37 
   35450    298.81625    260.40372   -3013.4574   -2568.9909    760.44769    12430.227 
   35500     297.1413     260.2046   -3006.8199   -2564.8448    979.54946    12429.385 
   35550    303.02937    260.51725   -3017.2416   -2566.5084    796.83432    12428.954 
   35600    294.18788    260.17845   -3005.9484   -2568.3663    1042.3394    12428.874 
   35650    299.94654    260.41356   -3013.7853   -2567.6375    805.20743    12429.233 
   35700    306.53717    260.72316   -3024.1055   -2568.1546    513.54422    12429.939 
   35750    297.37655    260.34265   -3011.4215   -2569.0964     786.9408    12430.848 
   35800    297.05482    260.36526   -3012.1752   -2570.3287     767.4202    12432.056 
   35850    295.98294    260.39641   -3013.2137   -2572.9615    648.04746    12433.578 
   35900     296.9265    260.60218   -3020.0728   -2578.4171    454.36365    12435.343 
   35950     290.5669    260.32598   -3010.8661   -2578.6699    694.71229    12437.281 
   36000    289.93753    260.35874    -3011.958   -2580.6979    717.35502    12439.487 
   36050     303.2016    255.84772   -3028.2575   -2577.2681    317.73355    12441.941 
   36100     295.6922    255.69156    -3023.052   -2583.2323    417.11336    12444.478 
   36150    304.61526    256.09239   -3036.4129   -2583.3208   -28.381557    12447.088 
   36200    292.26022    255.73371    -3024.457    -2589.742     171.9034    12449.607 
   36250    292.53566    255.75742   -3025.2473   -2590.1226   -11.004284    12452.079 
   36300    293.57484    255.82773   -3027.5911   -2590.9208   -151.82553    12454.431 
   36350    297.60106    255.98959   -3032.9862   -2590.3272   -285.35225    12456.574 
   36400    284.65088    255.57732   -3019.2441   -2595.8475    75.569641    12458.474 
   36450    286.27606    255.61463   -3020.4878   -2594.6738     14.50476    12460.261 
   36500    286.17617    255.69202   -3023.0674    -2597.402   -77.613678    12461.934 
   36550    289.25564    255.86115   -3028.7049   -2598.4591   -311.19977    12463.425 
   36600    283.33093    255.74092   -3024.6974   -2603.2642   -183.98141    12464.642 
   36650    280.54419    255.69298   -3023.0993   -2605.8111    -119.1822    12465.621 
   36700    277.96566    255.64079   -3021.3598    -2607.907   -69.863974    12466.408 
   36750    284.43265    255.87728   -3029.2425   -2606.1705   -247.00477    12467.014 
   36800    280.53372    255.87814   -3029.2714   -2611.9987   -98.991604     12467.37 
   36850    271.93335    255.55631   -3018.5437   -2614.0635    112.41758     12467.56 
   36900    289.31493    256.17531   -3039.1771   -2608.8431   -620.18667    12467.639 
   36950    284.78691     256.0214   -3034.0466   -2610.4477   -617.73268    12467.282 
   37000    292.77435     256.2622   -3042.0732   -2606.5936   -878.22346     12466.42 
   37050    296.26805    251.41126   -3047.0419   -2606.3656   -969.70324    12464.934 
   37100      287.262    251.16637   -3038.8791   -2611.5987   -746.50203    12462.754 
   37150    278.32951    250.83424   -3027.8079   -2613.8139   -520.14047    12460.013 
   37200    280.25271    251.04549   -3034.8495   -2617.9949   -660.44421      12456.8 
   37250    288.23024    251.32199   -3044.0664   -2615.3457    -915.0043    12453.053 
   37300    294.47657    251.55272   -3051.7572   -2613.7456   -1000.7194    12448.627 
   37350    286.75703    251.36191   -3045.3971   -2618.8678   -529.73929    12443.496 
   37400    291.83367    251.59168   -3053.0559   -2618.9754   -527.38366    12437.876 
   37450    291.77654    251.55347   -3051.7823   -2617.7868   -508.37178    12431.794 
   37500    284.66964    251.26908   -3042.3027   -2618.8782   -209.45914    12425.268 
   37550    280.01792    251.00632    -3033.544   -2617.0386    120.74969    12418.448 
   37600    282.51606    251.08184   -3036.0612   -2615.8399    164.51013    12411.507 
   37650    291.91373    251.47991   -3049.3304   -2615.1308   -131.12566     12404.48 
   37700    289.45192    251.38589   -3046.1962   -2615.6584   -78.890844    12397.238 
   37750    299.41377    251.74002   -3058.0007   -2612.6454   -391.51363    12389.754 
   37800    287.39855    251.27551    -3042.517   -2615.0335    92.883444    12381.927 
   37850    276.83577    250.80768   -3026.9226   -2615.1504    572.83864    12373.977 
   37900    293.17436    251.40853    -3046.951   -2610.8764    45.587447     12366.12 
   37950    298.28856    251.63725    -3054.575   -2610.8934   -70.651777    12358.146 
   38000    289.72167     251.2509   -3041.6968   -2610.7578    409.33079    12350.004 
   38050    295.23569    256.42493   -3047.4977   -2608.3569    337.00063    12341.882 
   38100    304.12971    256.83855   -3061.2851   -2608.9152    92.927188    12333.787 
   38150    295.86198     256.4521   -3048.4034   -2608.3311    549.25169    12325.632 
   38200    296.67191    256.50215   -3050.0718   -2608.7948    644.74059    12317.594 
   38250    302.15217    256.72657   -3057.5524   -2608.1239    540.84167    12309.768 
   38300    299.32752    256.60346   -3053.4486   -2608.2216     790.2249    12302.094 
   38350    279.84875    255.88465   -3029.4883   -2613.2345    1517.8449    12294.737 
   38400    305.14101    256.79986   -3059.9954   -2606.1213    722.18149    12287.983 
   38450    303.41545    256.67494   -3055.8312   -2604.5238    827.04253    12281.536 
   38500    286.20062    256.10621   -3036.8736   -2611.1719    1542.5148    12275.418 
   38550    298.28155    256.54717   -3051.5724   -2607.9012    1258.6542    12269.945 
   38600    302.31366    256.65081   -3055.0271   -2605.3584    1201.1341    12265.044 
   38650    301.65109    256.68759   -3056.2531   -2607.5699    1292.1612    12260.654 
   38700    301.45512    256.75584   -3058.5279   -2610.1363    1278.1933    12256.831 
   38750    308.23273    256.90288   -3063.4292   -2604.9564    1101.3678    12253.557 
   38800    309.73355    257.02069   -3067.3562    -2606.651    1054.8631    12250.752 
   38850    308.48598    256.89451   -3063.1503   -2604.3008    1158.4966    12248.393 
   38900    298.84928    256.57189   -3052.3964   -2607.8808    1397.0037    12246.562 
   38950    310.88215    257.02326   -3067.4418   -2605.0282    1027.1727    12245.312 
   39000    297.91198    256.46259   -3048.7529   -2605.6315    1475.8261    12244.538 
   39050    305.08394     256.8138   -3060.4598   -2606.6706    1188.0271    12244.384 
   39100    308.74046    256.86624   -3062.2079   -2602.9799    1102.7107    12244.766 
   39150    307.61521    256.82463   -3060.8211   -2603.2668    1116.4051    12245.635 
   39200    301.35539     256.6398   -3054.6601   -2606.4168    1321.5768    12246.993 
   39250    303.94397    256.71012    -3057.004   -2604.9104    1193.6851    12248.952 
   39300    311.55946    257.13886   -3071.2954   -2607.8743    781.55123    12251.425 
   39350    303.46576    256.76373   -3058.7909   -2607.4086    1017.9367    12254.247 
   39400     299.2016    256.59099   -3053.0329   -2607.9932    1139.9968    12257.508 
   39450    303.23612    256.73497   -3057.8324   -2606.7917    968.35233    12261.248 
   39500    305.94607    256.84808   -3061.6025   -2606.5309    845.13694     12265.42 
   39550    308.37734    256.81719   -3060.5731   -2601.8852    855.11204    12269.947 
   39600    315.10369    257.11398    -3070.466   -2601.7732    655.82373    12274.803 
   39650    298.02921    256.48375   -3049.4583   -2606.1625    1141.5924    12279.961 
   39700    299.02455    256.58325   -3052.7751   -2607.9987    1027.3709    12285.594 
   39750    292.60951    256.30063   -3043.3543   -2608.1198    1146.0347    12291.726 
   39800     300.1781    256.54995    -3051.665   -2605.1728    861.47633    12298.366 
   39850    293.47016    256.37241   -3045.7469   -2609.2322    925.30766    12305.426 
   39900    303.08104    256.73292   -3057.7641    -2606.954    429.42817    12312.866 
   39950    311.98794    257.10962   -3070.3207   -2606.2623   -8.7079035    12320.455 
   40000    296.03279    256.46288   -3048.7626   -2608.4363    485.73753    12328.004 
   40050    291.49806    256.32832   -3044.2774   -2610.6961    564.07967    12335.691 
   40100     290.6674    256.29737   -3043.2458   -2610.9001    465.37468    12343.594 
   40150    297.76091    256.59826   -3053.2752   -2610.3784    153.00448    12351.639 
   40200    287.49694    256.17269   -3039.0898   -2611.4599    395.59372    12359.724 
   40250    291.05469    256.26061   -3042.0205   -2609.0987    194.04042    12367.908 
   40300     286.5912    255.93813   -3031.2709   -2604.9882    292.87179    12376.126 
   40350    291.06126    256.09985   -3036.6615   -2603.7299    58.583462    12384.396 
   40400    300.56529    256.50968   -3050.3225   -2603.2544   -385.44122    12392.608 
   40450    296.87812    256.41531    -3047.177   -2605.5933   -325.28384    12400.546 
   40500    300.77326    256.53126   -3051.0419   -2603.6644    -432.3791     12408.18 
   40550    282.05488    255.74265   -3024.7549   -2605.2196     210.8603    12415.524 
   40600    291.31842    256.10116   -3036.7055   -2603.3914   -35.777314    12422.821 
   40650    289.04349    256.01331   -3033.7771   -2603.8468   -26.599978    12430.025 
   40700    284.04147    255.85587   -3028.5289   -2606.0388     65.06895     12437.12 
   40750    294.64707    256.20247   -3040.0823   -2601.8171   -363.05543    12444.126 
   40800    297.17399    256.31316   -3043.7721   -2601.7483   -590.18373     12450.84 
   40850    285.64569    255.80548   -3026.8495   -2601.9731   -334.28956    12457.151 
   40900    295.23715    256.11919   -3037.3063   -2598.1634   -653.86881    12463.113 
   40950    286.21492    255.71496   -3023.8321   -2598.1091   -344.90039    12468.643 
   41000    284.85847    255.69147    -3023.049   -2599.3436   -375.11065     12473.85 
   41050    295.99034    256.06833    -3035.611   -2595.3478   -747.89935    12478.701 
   41100    295.26632    255.99977   -3033.3257   -2594.1395   -744.11157    12483.046 
   41150    301.14052    256.19632   -3039.8774   -2591.9537   -998.26337     12486.83 
   41200    292.03882    255.69663   -3023.2209   -2588.8353   -639.42548     12489.97 
   41250    292.36361     255.5903   -3019.6768   -2584.8081   -519.85729    12492.596 
   41300    294.85916    255.73093   -3024.3642   -2585.7836   -583.78007     12494.78 
   41350    295.73231    255.72504    -3024.168   -2584.2886   -635.45304    12496.509 
   41400    296.11395    255.76679   -3025.5595   -2585.1125   -725.39126    12497.735 
   41450    293.89619     255.6418   -3021.3935   -2584.2452   -682.68452    12498.433 
   41500    285.09459    255.33651   -3011.2171   -2587.1605   -305.77333    12498.614 
   41550    287.19981    255.30302   -3010.1008   -2582.9128    -242.5605    12498.475 
   41600    302.35979    255.78885    -3026.295   -2576.5577   -675.10421    12498.053 
   41650    308.84388     255.8652     -3028.84   -2569.4581   -668.48474    12497.119 
   41700    287.52183    255.04886   -3001.6288   -2573.9619    159.16055    12495.706 
   41750    301.65731    255.64331   -3021.4435   -2572.7511   -253.24566    12494.172 
   41800    307.70096    255.84177    -3028.059   -2570.3771   -422.89864    12492.365 
   41850    298.86161     255.4777   -3015.9234   -2571.3894   -49.314574    12490.185 
   41900    300.56623    255.44875   -3014.9584   -2567.8889    6.6820513    12487.833 
   41950    300.16931    255.35226    -3011.742   -2565.2629    62.549407    12485.336 
   42000    301.15187    255.42467   -3014.1556    -2566.215   -20.411981    12482.718 
   42050    303.39837     255.4713   -3015.7099   -2564.4278   -99.139514    12479.949 
   42100    302.91713    255.47539   -3015.8465   -2565.2802    76.998281    12476.976 
   42150    304.18072    255.54368   -3018.1227   -2565.6769    177.50522    12473.879 
   42200    300.06893    255.35482   -3011.8273   -2565.4975    312.22664    12470.748 
   42250    301.09433    255.32297   -3010.7656   -2562.9106    262.52901    12467.652 
   42300     305.6585    255.49441   -3016.4804   -2561.8365    133.66954    12464.533 
   42350    305.01222    255.38728   -3012.9095   -2559.2269    194.24415    12461.356 
   42400    316.76111    255.90374   -3030.1245   -2558.9664   -125.73212    12458.104 
   42450    304.61888    255.41693   -3013.8977   -2560.8002    332.64595    12454.681 
   42500    316.15666    255.80946   -3026.9819   -2556.7229    22.766389    12451.241 
   42550    308.60759    255.48352   -3016.1175   -2557.0871    406.06569    12447.697 
   42600    314.30979    255.65613    -3021.871   -2554.3591      348.575      12444.2 
   42650    322.65535    255.88945   -3029.6485   -2549.7231    81.891471    12440.746 
   42700    321.74982    255.82306   -3027.4352   -2548.8567    104.86139    12437.185 
   42750    312.74218    255.55929    -3018.643   -2553.4627    403.47269    12433.535 
   42800    297.87597    255.07134    -3002.378   -2559.3101    920.21351    12429.966 
   42850    296.60509    254.97266   -2999.0888   -2557.9112    965.54565    12426.737 
   42900    310.67974    255.44489   -3014.8295   -2552.7169    456.80828    12423.877 
   42950    307.06005    255.41276   -3013.7587   -2557.0301    437.10795    12421.152 
   43000    311.56113    255.58047   -3019.3489   -2555.9253    319.85102    12418.506 
   43050    303.69547    255.35833   -3011.9443   -2560.2203    598.22554    12415.926 
   43100    303.74728    255.35092   -3011.6975   -2559.8964    652.68166     12413.51 
   43150    309.31823    255.55755   -3018.5849   -2558.4975    580.99543    12411.306 
   43200     315.9768    255.76022   -3025.3405    -2555.349    440.80553    12409.284 
   43250    317.13001    255.90646   -3030.2155   -2558.5086    392.77767    12407.359 
   43300    306.47221    255.53846   -3017.9486   -2562.0944    731.52152    12405.525 
   43350    310.30726    255.63533   -3021.1775    -2559.619    569.99198    12403.931 
   43400    306.29197    255.49798   -3016.5994   -2561.0133    620.28903    12402.546 
   43450     309.5075    255.71928    -3023.976   -2563.6071     458.6212    12401.346 
   43500    317.29633    256.05304   -3035.1014   -2563.1472    226.50431     12400.26 
   43550    314.92413    255.99499   -3033.1662   -2564.7404    377.15749     12399.17 
   43600    308.76373    255.73494    -3024.498   -2565.2354    722.19375    12398.155 
   43650    311.42134    255.80716   -3026.9054   -2563.6898    750.24103     12397.39 
   43700    309.93566    255.83336   -3027.7786   -2566.7728    758.59688    12396.903 
   43750    304.72495    255.55636   -3018.5454   -2565.2901    867.19778    12396.711 
   43800    313.10949    255.92317   -3030.7724   -2565.0458    589.14023    12396.839 
   43850    307.17707    255.69918   -3023.3059   -2566.4033    753.85375    12397.193 
   43900    312.07287    255.88727   -3029.5756   -2565.3908    531.54713    12397.811 
   43950    313.27967    255.92885   -3030.9617   -2564.9819    451.02747    12398.595 
   44000    298.87467    255.45119   -3015.0397   -2570.4863    899.85591    12399.529 
   44050    307.80714    255.86391   -3028.7969   -2570.9571    572.42549    12400.797 
   44100    308.42804     255.8701   -3029.0033   -2570.2399    544.71604    12402.276 
[...]
   89400    285.53987    251.21273   -3040.4245   -2615.7056    741.56685    12323.271 
   89450    295.66315    251.61907    -3053.969   -2614.1924    386.18103    12321.549 
   89500    303.73456    251.82644   -3060.8814   -2609.0993    37.736205    12319.896 
   89550    302.19525    251.76175   -3058.7249   -2609.2323    77.631279    12318.117 
   89600    299.25605    251.64913   -3054.9711   -2609.8504    293.12041    12316.213 
   89650    304.51308     251.8118   -3060.3932   -2607.4531    118.96389    12314.297 
   89700    313.88854    252.26508   -3075.5028   -2608.6174   -228.01395    12312.267 
   89750    299.13173    251.76465   -3058.8217   -2613.8859     327.8976    12309.987 
   89800    299.18752    251.66622   -3055.5406   -2610.5218    419.99282    12307.665 
   89850    309.21341    252.15498   -3071.8328   -2611.9013    135.86097    12305.382 
   89900    294.50173    251.56879   -3052.2931   -2614.2441    688.46852    12303.075 
   89950    302.43001    251.81877   -3060.6255   -2610.7838    436.54856    12300.918 
   90000    303.62993    251.93301   -3064.4337   -2612.8072    248.71589    12298.837 
   90050    290.86603    246.47528   -3049.1762    -2616.535    549.32956    12296.739 
   90100    311.64815    247.29711   -3076.5705   -2613.0175   -78.905537    12294.697 
   90150    296.36889    246.81284   -3060.4281   -2619.6018    439.86902    12292.501 
   90200    303.44322    247.00096   -3066.6985   -2615.3498    330.82931    12290.295 
   90250    309.21741    247.35717   -3078.5723   -2618.6349    60.167869    12288.085 
   90300    315.17089     247.5712   -3085.7068    -2616.914   -150.36994    12285.714 
   90350    300.44296    247.09527   -3069.8423   -2622.9562    333.92556      12283.1 
   90400    295.63592    246.91047   -3063.6822   -2623.9462    475.74412    12280.461 
   90450    300.94107    247.14269   -3071.4229   -2623.7959      257.974    12277.879 
   90500    292.83379    246.86092   -3062.0308   -2626.4627    548.62618    12275.272 
   90550    311.43036    247.56723   -3085.5742   -2622.3451    39.049436    12272.716 
   90600    295.76793     247.0344   -3067.8134    -2627.881    570.31221    12270.061 
   90650    296.42474    247.22433   -3074.1443   -2633.2349    510.61422    12267.472 
   90700    305.40958    247.45221   -3081.7403   -2627.4667    258.66508    12264.966 
   90750    300.47934    247.24221   -3074.7404   -2627.8002    477.94816    12262.441 
   90800    289.09648    246.99306   -3066.4354   -2636.4263    701.80673    12259.983 
   90850    295.77016    247.20602    -3073.534   -2633.5983      393.659    12257.688 
   90900    304.07659    247.57704   -3085.9013   -2633.6104    45.450303    12255.427 
   90950    301.38698    247.59379   -3086.4597   -2638.1694    77.833227    12253.012 
   91000    295.30499    247.51297   -3083.7656   -2644.5218    262.59542     12250.45 
   91050    293.26606    247.38251   -3079.4169   -2643.2059    356.20347    12247.839 
   91100     297.6206    247.56932   -3085.6439   -2642.9558      194.925     12245.22 
   91150    298.52023    247.70126   -3090.0418   -2646.0156    215.05986    12242.505 
   91200    283.07059    247.21071   -3073.6903   -2652.6442    672.24519     12239.75 
   91250    305.58443    248.12094   -3104.0312   -2649.4975   -179.76342    12237.096 
   91300    295.72878    247.79602   -3093.2008   -2653.3266      45.5214    12234.212 
   91350    303.41606    248.13896   -3104.6318   -2653.3235   -196.49866    12231.114 
   91400    291.06236    247.76637   -3092.2123   -2659.2791    283.24666    12227.737 
   91450    288.90937    247.66458   -3088.8194   -2659.0886    478.43233    12224.289 
   91500    295.64711    248.01966   -3100.6553   -2660.9026    175.53554    12220.873 
   91550     283.4136    247.62781   -3087.5935   -2666.0373    404.50661    12217.377 
   91600    295.03509    248.12009   -3104.0029   -2665.1605    11.931526    12213.855 
   91650    286.34191    247.74238   -3091.4126   -2665.5007     393.8362    12210.178 
   91700    292.62849    248.02013   -3100.6709   -2665.4082     182.7855    12206.453 
   91750     285.5022    247.82028   -3094.0094   -2669.3466    362.11684    12202.646 
   91800    293.18993    248.09265   -3103.0882   -2666.9904    215.60418    12198.797 
   91850     296.7928    248.22864   -3107.6213   -2666.1645    178.13949    12194.852 
   91900     292.6814    248.12977   -3104.3258   -2668.9844    351.71047    12190.792 
   91950    289.63714    248.04003   -3101.3344   -2670.5211    485.78656    12186.707 
   92000    304.52498    248.58379   -3119.4597   -2666.5019    30.034919     12182.62 
   92050    291.07103    243.22449   -3107.4829   -2674.5368    457.69924     12178.36 
   92100    278.38401    242.66096   -3088.6987   -2674.6235    929.56305    12174.114 
   92150    285.19994    242.88539   -3096.1796   -2671.9663    741.17818    12170.102 
   92200    299.49485    243.42206   -3114.0685   -2668.5926    313.28878    12166.253 
   92250    297.28655    243.28307   -3109.4357   -2667.2445    434.63352    12162.368 
   92300    288.65068    243.13092    -3104.364    -2675.018    648.67261    12158.491 
   92350    300.94246    243.50209   -3116.7363   -2669.1072    311.08972    12154.703 
   92400     292.0819    243.20967   -3106.9891   -2672.5394    562.17561    12150.889 
   92450    309.77066    243.76401   -3125.4671   -2664.7067    34.938688    12147.081 
   92500    297.08299    243.26258   -3108.7526   -2666.8642    491.72069    12143.115 
   92550    295.38812    243.24512   -3108.1708   -2668.8034    572.18316    12139.152 
   92600    290.71334    243.17829   -3105.9431    -2673.529    741.68415    12135.273 
   92650      280.129     242.7969   -3093.2299   -2676.5593    1194.2274    12131.579 
   92700    293.35684    243.22988   -3107.6626   -2671.3165    899.17593    12128.266 
   92750    297.31105    243.35431   -3111.8102   -2669.5826    902.49274    12125.243 
   92800    293.38599    243.23245   -3107.7483   -2671.3588    1105.6017    12122.486 
   92850    300.57652    243.45683   -3115.2276   -2668.1428    904.49827    12120.077 
   92900    299.97873    243.42326   -3114.1087   -2667.9131     1022.629    12117.967 
   92950    285.48534    242.87483   -3095.8275   -2671.1897    1507.0978    12116.235 
   93000    308.03668     243.7522   -3125.0732    -2666.892    723.69337     12115.03 
   93050    296.23258    243.25614   -3108.5379   -2667.9144    1041.1587     12114.12 
   93100    299.16452    243.38814   -3112.9381   -2667.9535    1005.0298    12113.551 
   93150    307.41675    243.72476   -3124.1586   -2666.8995    773.92858    12113.323 
   93200    301.08399     243.5103   -3117.0098   -2669.1702     909.0086    12113.364 
   93250    292.32611    243.17314   -3105.7712   -2670.9583    1180.9469    12113.731 
   93300    289.91945    243.06508   -3102.1694   -2670.9362    1234.5481    12114.564 
   93350    293.75384    243.29917   -3109.9725   -2673.0359    1097.6396    12115.913 
   93400    281.17841    242.74533    -3091.511   -2673.2794    1643.0786    12117.755 
   93450    269.82951    242.30615   -3076.8716   -2675.5207    2026.1923    12120.345 
   93500    307.20748    243.54224   -3118.0748    -2661.127     731.6476    12123.831 
   93550    317.39076    243.95816   -3131.9386   -2659.8439    202.59517    12127.647 
   93600    304.14022    243.40148   -3113.3828   -2660.9973    588.09834    12131.525 
   93650    304.12635     243.3798   -3112.6601   -2660.2953    647.48167     12135.58 
   93700    296.45803    243.11037   -3103.6789   -2662.7201    941.83689    12139.899 
   93750    300.19961    243.23582   -3107.8608   -2661.3366    806.85789    12144.619 
   93800    297.19441    243.16358   -3105.4528   -2663.3986    803.69982    12149.698 
   93850    304.44134    243.29395   -3109.7985   -2656.9651    602.20388    12155.135 
   93900    300.66682    243.12645    -3104.215   -2656.9959    681.73862    12160.844 
   93950    296.58378    242.95485   -3098.4948   -2657.3489    740.30582    12166.849 
   94000    284.56783    242.47156   -3082.3854   -2659.1123    1061.5484    12173.228 
   94050    298.11563    242.99277    -3099.759   -2656.3346    551.92578     12180.07 
   94100    305.13346    243.09897    -3103.299   -2649.4361    363.16698     12187.19 
   94150     310.8719    243.22174   -3107.3912   -2644.9928    255.40587    12194.472 
   94200    298.32153    242.64995   -3088.3315   -2644.6009    581.46921    12201.874 
   94250    301.75799    242.82304   -3094.1014   -2645.2592    309.31314    12209.491 
   94300    297.46367     242.5588   -3085.2932   -2642.8385    408.77895    12217.277 
   94350    299.01214    242.53557   -3084.5189    -2639.761    421.00048    12225.231 
   94400    302.60241    242.66176   -3088.7254   -2638.6273    342.57584     12233.38 
   94450    306.69045    242.75088   -3091.6959   -2635.5171    207.71113    12241.674 
   94500    295.94094    242.28216   -3076.0719   -2635.8822     498.8155    12250.068 
   94550    295.73902    242.16716   -3072.2388   -2632.3494    430.79996    12258.696 
   94600     302.2273    242.38817   -3079.6055   -2630.0653    117.49982    12267.506 
   94650    311.55873    242.59314    -3086.438    -2623.018   -160.44138    12276.333 
   94700    323.22653    242.86677   -3095.5591   -2614.7841   -486.51195    12285.007 
   94750    306.67078     242.2807   -3076.0235   -2619.8739    55.251931    12293.402 
   94800    297.07345    241.80723    -3060.241   -2618.3667    431.70194    12301.757 
   94850    306.34322    242.07859   -3069.2864   -2613.6241    59.090148     12310.27 
   94900    305.46623    241.95841   -3065.2802   -2610.9223   -38.300564    12318.774 
   94950    301.72408    241.70263   -3056.7545   -2607.9627    11.874173    12327.207 
   95000    310.42807     242.0942   -3069.8067   -2608.0684   -302.65179    12335.551 
   95050    298.81048    241.54447   -3051.4824   -2607.0245    102.01427    12343.703 
   95100    294.88922    241.41919   -3047.3064    -2608.681      190.833    12351.815 
   95150    298.30329    241.46987   -3048.9958   -2605.2922    109.22271    12359.945 
   95200     302.9114    241.61277   -3053.7592   -2603.2014     27.30026    12368.047 
   95250    300.44761     241.5099     -3050.33    -2603.437    22.052069    12376.111 
   95300    316.39975    242.02994   -3067.6647   -2597.0441   -569.00247    12384.057 
   95350    305.21055    241.50448   -3050.1494   -2596.1719   -104.21966    12391.654 
   95400    291.90572    240.96833   -3032.2778   -2598.0901    327.12297    12399.099 
   95450    301.14975    241.29361   -3043.1204    -2595.183   -85.227385    12406.586 
   95500    301.31347    241.34026   -3044.6754   -2596.4945    -255.4322    12413.962 
   95550    294.64097    241.05653   -3035.2175   -2596.9614   -139.11082    12421.112 
   95600     304.2513    241.40498   -3046.8328    -2594.282   -542.25818     12428.05 
   95650    297.79754    241.12205   -3037.4016   -2594.4504   -347.43757     12434.63 
   95700    312.83151    241.62359   -3054.1197   -2588.8065   -804.21583    12440.855 
   95750    331.07842       242.16   -3072.0001   -2579.5461   -1422.0243    12446.493 
   95800     316.8019     241.7213   -3057.3766   -2586.1578   -1077.8459    12451.234 
   95850    301.19293    241.15024   -3038.3414   -2590.3398   -630.75028    12455.227 
   95900    304.01655     241.2224   -3040.7468   -2588.5452   -674.52032    12458.678 
   95950    287.80715    240.65638   -3021.8793    -2593.788   -210.91822    12461.645 
   96000     304.6794    241.29432    -3043.144   -2589.9565    -754.9454    12464.285 
   96050    300.00492    241.11648   -3037.2161   -2590.9815   -665.45475    12466.383 
   96100    298.76318    241.14551   -3038.1836    -2593.796   -692.62338     12467.92 
   96150    302.07324     241.2629   -3042.0966   -2592.7856    -892.2854    12468.884 
   96200     309.5471    241.43216   -3047.7387   -2587.3109   -1063.5558    12469.154 
   96250    306.83691     241.3207   -3044.0234   -2587.6268   -914.07819    12468.644 
   96300    294.21307    240.82336   -3027.4452   -2589.8256   -476.30358    12467.451 
   96350    306.12745     241.2765   -3042.5498   -2587.2085   -873.41495    12465.739 
   96400    299.38674    241.06972   -3035.6574   -2590.3423   -791.76769    12463.371 
   96450    308.76263    241.35094   -3045.0314   -2585.7704   -1068.8585    12460.325 
   96500    313.05536    241.45256   -3048.4186   -2582.7724   -1092.0636    12456.466 
   96550    288.02691    240.60209   -3020.0697   -2591.6515   -293.87869    12451.818 
   96600    301.91358    241.16473   -3038.8244   -2589.7508   -650.68867    12446.705 
   96650    308.99622    241.58774   -3052.9246   -2593.3161   -873.35395    12441.024 
   96700    319.53162    241.90598   -3063.5326   -2588.2535   -1110.0474    12434.605 
   96750    305.88768    241.34999   -3044.9996   -2590.0149   -507.15363    12427.375 
   96800    301.00922    241.25883   -3041.9609   -2594.2324   -138.35607    12419.599 
   96850    291.08066    241.05612   -3035.2041   -2602.2437    242.75066    12411.515 
   96900    294.96596    241.14158   -3038.0527   -2599.3132    142.43103    12403.319 
   96950    303.70618    241.37452   -3045.8172   -2594.0773   -167.40039    12394.967 
   97000    315.20517    241.74541   -3058.1804   -2589.3366   -479.30264    12386.269 
   97050    307.55908    241.56518   -3052.1726   -2594.7018   -160.58245    12377.089 
   97100    311.80089    241.76964    -3058.988   -2595.2078   -196.82371    12367.562 
   97150    306.29829    241.59958   -3053.3192   -2597.7237    5.3173904    12357.697 
   97200    308.95708    241.72637   -3057.5458   -2597.9955    -63.27653     12347.58 
   97250    307.40157    241.71018   -3057.0061   -2599.7695    55.267914    12337.203 
   97300    291.03955    241.17871   -3039.2902    -2606.391    668.41698    12326.665 
   97350    317.31531    242.06251   -3068.7504    -2596.768   -30.206685    12316.193 
   97400    324.40759    242.42357   -3080.7857    -2598.254   -232.87455    12305.475 
   97450    321.73954    242.39393   -3079.7977   -2601.2345   -80.376512    12294.404 
   97500    313.28138    242.12851   -3070.9503    -2604.968    345.56276    12283.072 
   97550    298.96087    241.69027   -3056.3423   -2611.6607    910.73216    12271.714 
   97600    309.97043    242.19152   -3073.0508   -2611.9932    498.28385    12260.593 
   97650    315.27889    242.40456    -3080.152   -2611.1985    349.18828    12249.537 
   97700    299.19826    241.92985   -3064.3282   -2619.2934    944.46756    12238.489 
   97750    307.49999    242.26602   -3075.5342   -2618.1512    791.79714    12227.693 
   97800     309.8611    242.43213   -3081.0709   -2620.1759    762.78648    12217.121 
   97850    308.10428    242.43437   -3081.1456   -2622.8638    813.32193    12206.773 
   97900    314.60801    242.68453   -3089.4843   -2621.5287    646.10832     12196.64 
   97950    307.06994    242.45199   -3081.7331   -2624.9898    1005.0547    12186.673 
   98000    302.90985    242.41125   -3080.3751   -2629.8196    1217.9017    12177.045 
   98050    311.89264    237.84499   -3094.8328   -2630.9162     946.5745    12167.839 
   98100    315.24536    238.03118   -3101.0394   -2632.1359    853.30795    12158.954 
   98150    312.69515    237.87932   -3095.9775   -2630.8671    1083.9348    12150.336 
   98200    309.32849    237.90539   -3096.8464   -2636.7437    1222.0207    12142.087 
   98250    326.89602    238.58887   -3119.6289   -2633.3959    663.76169    12134.219 
   98300    315.20384    238.20463   -3106.8211   -2637.9793    1065.4715    12126.547 
   98350     307.1748    238.02506   -3100.8354   -2643.9362    1309.2086    12119.226 
   98400    318.21181    238.40384   -3113.4614   -2640.1454    986.31571    12112.369 
   98450    312.77153     238.3324     -3111.08    -2645.856    1121.8254    12105.864 
   98500    307.25329    238.19905   -3106.6349   -2649.6189    1340.7366    12099.754 
   98550    306.75125    238.19491   -3106.4969   -2650.2277    1416.3115    12094.165 
   98600    301.33463    238.06014   -3102.0048   -2653.7924     1542.986    12089.164 
   98650    312.32614    238.56379    -3118.793   -2654.2316    1148.6447    12084.746 
   98700    303.08007    238.13843   -3104.6143   -2653.8057    1518.3041    12080.806 
   98750    311.81273    238.40267   -3113.4225   -2649.6247    1288.6422    12077.458 
   98800    310.20124    238.41492   -3113.8307   -2652.4298      1261.84     12074.61 
   98850    302.06953    238.17786   -3105.9285    -2656.623    1525.6893    12072.247 
   98900    299.09865     238.1925   -3106.4167   -2661.5301    1677.7184    12070.502 
   98950     304.3978    238.38793   -3112.9311   -2660.1624    1520.4048    12069.441 
   99000      310.327    238.67243   -3122.4143   -2660.8264    1234.1074    12069.008 
   99050    308.24307    233.55934   -3118.6445   -2660.1563    1304.5091    12069.074 
   99100    310.66971    233.67813   -3122.6042   -2660.5066    1285.8132    12069.623 
   99150    306.09405     233.5304   -3117.6798   -2662.3881     1430.837    12070.677 
   99200    302.12632    233.31699   -3110.5663   -2661.1763     1550.786    12072.288 
   99250    297.60296    233.18174   -3106.0579    -2663.396    1570.7553    12074.545 
   99300    322.75086    234.10892   -3136.9639   -2656.8964    655.50888    12077.389 
   99350    316.77726    233.92918   -3130.9727   -2659.7906    716.59979    12080.439 
   99400    303.52288    233.46619   -3115.5395   -2664.0722    1053.6045    12083.679 
   99450    295.70701     233.2832   -3109.4399   -2669.5981     1271.681    12087.281 
   99500    298.84578    233.41994   -3113.9982   -2669.4877    1107.9661    12091.371 
   99550    320.02022    234.16016   -3138.6721   -2662.6663    435.38999    12095.836 
   99600    308.84274    233.76961   -3125.6536   -2666.2735    774.62457     12100.39 
   99650     301.2578    233.55255   -3118.4185   -2670.3203    932.86075     12105.15 
   99700    305.73279    233.73079   -3124.3597   -2669.6053    696.23513    12110.202 
   99750    284.02569     233.0112   -3100.3734   -2677.9067    1286.8448    12115.495 
   99800    303.55977    233.75299   -3125.0995   -2673.5774    603.68095    12121.219 
   99850    309.58442    234.00969   -3133.6564    -2673.173    253.37019    12127.112 
   99900     288.9472    233.25698   -3108.5661   -2678.7791    802.91605    12133.013 
   99950    309.30047    233.99861   -3133.2871    -2673.226    93.275109     12139.08 
  100000    297.77697    233.53764   -3117.9214   -2675.0007    343.13496    12145.092 
Loop time of 27.019 on 1 procs for 100000 steps with 500 atoms

Performance: 319.775 ns/day, 0.075 hours/ns, 3701.104 timesteps/s
99.7% CPU use with 1 MPI tasks x 1 OpenMP threads

MPI task timing breakdown:
Section |  min time  |  avg time  |  max time  |%varavg| %total
---------------------------------------------------------------
Pair    | 21.727     | 21.727     | 21.727     |   0.0 | 80.42
Bond    | 0.0080006  | 0.0080006  | 0.0080006  |   0.0 |  0.03
Neigh   | 0.53834    | 0.53834    | 0.53834    |   0.0 |  1.99
Comm    | 0.76841    | 0.76841    | 0.76841    |   0.0 |  2.84
Output  | 0.018309   | 0.018309   | 0.018309   |   0.0 |  0.07
Modify  | 2.7386     | 2.7386     | 2.7386     |   0.0 | 10.14
Other   |            | 1.22       |            |       |  4.51

Nlocal:    500 ave 500 max 500 min
Histogram: 1 0 0 0 0 0 0 0 0 0
Nghost:    1596 ave 1596 max 1596 min
Histogram: 1 0 0 0 0 0 0 0 0 0
Neighs:    14482 ave 14482 max 14482 min
Histogram: 1 0 0 0 0 0 0 0 0 0

Total # of neighbors = 14482
Ave neighs/atom = 28.964
Ave special neighs/atom = 0
Neighbor list builds = 649
Dangerous builds = 0

write_data      ${walker}/final_restart_file
write_data      10/final_restart_file

quit
