LAMMPS (19 May 2017)
Processor partition = 10
  using 1 OpenMP thread(s) per MPI task
# gREM variables
variable        lambda world 1000 1005 1010 1015 1020 1025 1030 1035 1040 1045 1050 1055 1060 1065 1070 1075
variable        walker world 0 1 2 3 4 5 6 7 8 9 10 11 12 13 14 15
variable        replica world 4 9 1 7 0 12 3 5 8 13 14 6 15 11 2 10

variable        T0 equal 300.0
variable        press equal 0.0

units           real
atom_style      full
pair_style      lj/cut 5.0

# LJ particles
read_data       ${walker}/restart_file
read_data       10/restart_file
  orthogonal box = (0.927967 0.927967 0.927967) to (24.072 24.072 24.072)
  1 by 1 by 1 MPI processor grid
  reading atoms ...
  500 atoms
  reading velocities ...
  500 velocities
  0 = max # of 1-2 neighbors
  0 = max # of 1-3 neighbors
  0 = max # of 1-4 neighbors
  1 = max # of special neighbors

#dump            dump all xyz 1000 ${walker}/dump.xyz

fix             fxnpt all npt temp ${T0} ${T0} 1000.0 iso ${press} ${press} 10000.0
fix             fxnpt all npt temp 300 ${T0} 1000.0 iso ${press} ${press} 10000.0
fix             fxnpt all npt temp 300 300 1000.0 iso ${press} ${press} 10000.0
fix             fxnpt all npt temp 300 300 1000.0 iso 0 ${press} 10000.0
fix             fxnpt all npt temp 300 300 1000.0 iso 0 0 10000.0
fix             fxgREM all grem ${lambda} -.03 -30000 fxnpt
fix             fxgREM all grem 1050 -.03 -30000 fxnpt
thermo_modify   press fxgREM_press

thermo          50
thermo_style    custom step temp f_fxgREM pe etotal press vol
WARNING: New thermo_style command, previous thermo_modify settings will be lost (../output.cpp:705)
timestep        1.0

temper/grem     100000 1000 ${lambda} fxgREM fxnpt 10294 98392 ${walker}
temper/grem     100000 1000 1050 fxgREM fxnpt 10294 98392 ${walker}
temper/grem     100000 1000 1050 fxgREM fxnpt 10294 98392 10
Neighbor list info ...
  update every 1 steps, delay 10 steps, check yes
  max neighbors/atom: 2000, page size: 100000
  master list distance cutoff = 7
  ghost atom cutoff = 7
  binsize = 3.5, bins = 7 7 7
  1 neighbor lists, perpetual/occasional/extra = 1 0 0
  (1) pair lj/cut, perpetual
      attributes: half, newton on
      pair build: half/bin/newton
      stencil: half/bin/3d/newton
      bin: standard
Per MPI rank memory allocation (min/avg/max) = 5.721 | 5.721 | 5.721 Mbytes
Step Temp f_fxgREM PotEng TotEng Press Volume 
       0    309.43712    240.63685   -3021.2282   -2560.9639     796.4212    12397.066 
      50    328.13839    241.32008   -3044.0026   -2555.9216    200.31008    12397.198 
     100    334.03879    241.43525   -3047.8416   -2550.9842   -3.1747575    12397.298 
     150     333.3556    241.47493   -3049.1644   -2553.3232    112.97914    12397.192 
     200    319.15399    241.02757   -3034.2524   -2559.5351    622.22586    12396.993 
     250    311.28169    240.75943   -3025.3142   -2562.3063    880.19375     12396.94 
     300    319.07871    241.07116   -3035.7055   -2561.1001    555.52327    12397.155 
     350    324.65551    241.22981   -3040.9935   -2558.0931    346.61744    12397.491 
     400     312.5128    240.76864   -3025.6214   -2560.7823    676.67179    12397.865 
     450    313.97449    240.90792   -3030.2641   -2563.2508    560.77208    12398.423 
     500     329.5495    241.45537   -3048.5123   -2558.3324    21.703075    12399.084 
     550    326.29999    241.44088   -3048.0294   -2562.6829   -33.936929    12399.585 
     600    318.41928    241.23244   -3041.0814   -2567.4568    96.646222    12399.878 
     650    315.93388    241.19339   -3039.7798    -2569.852    165.99449    12400.028 
     700    314.43149    241.15182   -3038.3938   -2570.7008     187.8985    12400.079 
     750    310.64693    241.13722   -3037.9075   -2575.8437    269.33829    12400.044 
     800    307.14232    241.05267   -3035.0892   -2578.2382    379.82519    12399.983 
     850    315.42876    241.33687   -3044.5624   -2575.3861     13.40032    12399.932 
     900    313.58066    241.38033    -3046.011   -2579.5835   -192.96945    12399.715 
     950    325.45122    241.81977   -3060.6589   -2576.5749   -696.62682    12399.174 
    1000    312.17914    241.35649   -3045.2163   -2580.8735   -288.01673    12398.104 
    1050    302.19056    246.08799   -3036.2664   -2586.7808   -39.593673    12396.678 
    1100    320.59502    246.80644   -3060.2145   -2583.3537   -680.07465    12395.002 
    1150    304.59175    246.23581   -3041.1938   -2588.1366   -211.67995    12392.835 
    1200     301.8267    246.23829   -3041.2763   -2592.3319   -176.33005    12390.345 
    1250     297.9847    246.25567   -3041.8558   -2598.6261   -153.45746     12387.63 
    1300    314.05794    246.92183   -3064.0609   -2596.9236   -614.79768    12384.621 
    1350     312.3169    246.83187   -3061.0624   -2596.5146   -484.52312    12381.114 
    1400    291.50686    246.15197   -3038.3992   -2604.8048    163.64774    12377.204 
    1450    296.68161     246.3758   -3045.8599   -2604.5684    12.135612    12373.171 
    1500    305.90612    246.75384   -3058.4613   -2603.4491   -283.27812    12368.967 
    1550    303.87513    246.68204   -3056.0681   -2604.0769   -191.38851    12364.467 
    1600    308.71799     246.8574   -3061.9133   -2602.7187   -311.65957     12359.67 
    1650    307.82337    246.85731   -3061.9104   -2604.0465   -307.44934    12354.537 
    1700    310.71457    246.93674   -3064.5579   -2602.3935    -377.3624    12349.059 
    1750     306.5225    246.82314   -3060.7715   -2604.8425   -173.00979    12343.217 
    1800    307.25391    246.87039   -3062.3463   -2605.3294   -86.247881     12337.08 
    1850    293.15818    246.36296   -3045.4321   -2609.3815    451.98485    12330.766 
    1900    299.73519    246.59909   -3053.3029   -2607.4695    310.54894    12324.504 
    1950    306.21097    246.85513   -3061.8375   -2606.3719    137.40706    12318.254 
    2000    304.72371    246.83543   -3061.1809   -2607.9275     274.4505    12311.928 
    2050       317.33    247.38593   -3079.5309   -2607.5266   -133.44509    12305.536 
    2100    298.16994    246.67595    -3055.865   -2612.3598    494.11822    12298.974 
    2150    299.02416    246.82452   -3060.8174   -2616.0416    472.48494    12292.476 
    2200    304.44261    247.02283   -3067.4278   -2614.5925    231.68049    12286.083 
    2250    299.18574    246.88481   -3062.8271    -2617.811    404.56633    12279.664 
    2300    307.58965    247.20804   -3073.6014   -2616.0851    279.65829     12273.29 
    2350    303.78317    247.11565   -3070.5215   -2618.6671    480.76429    12266.935 
    2400     301.3451     247.0883   -3069.6098   -2621.3818    611.64688    12260.671 
    2450    320.97517    247.76799   -3092.2664   -2614.8402    45.063232    12254.556 
    2500    322.18422      247.827   -3094.2332   -2615.0086    100.49967    12248.331 
    2550    293.08816     246.8808   -3062.6933   -2626.7469    1120.2709    12242.051 
    2600    306.35792    247.44326    -3081.442   -2625.7578     758.5927    12236.145 
    2650    307.88286     247.4461   -3081.5366   -2623.5842    757.89212    12230.534 
    2700    308.85163    247.45345   -3081.7817   -2622.3883    830.76703    12225.168 
    2750    298.67393    247.11795   -3070.5984   -2626.3435    1161.5714    12220.117 
    2800    307.10556    247.45913   -3081.9711   -2625.1748    848.63975    12215.491 
    2850    304.25702    247.37087   -3079.0289   -2626.4697    941.97163    12211.198 
    2900    305.68177     247.4838   -3082.7935    -2628.115    866.85659    12207.252 
    2950     304.2632    247.47666   -3082.5555    -2629.987    818.19172    12203.642 
    3000    316.13551    247.92682   -3097.5606    -2627.333    462.20606    12200.277 
    3050    299.48634    242.40131   -3080.0437   -2634.5805    970.10476    12197.052 
    3100    306.76014    242.62103   -3087.3678   -2631.0854    775.27997    12194.138 
    3150    306.78537    242.71845   -3090.6149   -2634.2949    804.49771    12191.491 
    3200    302.03673     242.5652   -3085.5067   -2636.2499    950.70727    12189.118 
    3250     300.0689    242.53966   -3084.6553   -2638.3255    1001.3672    12187.079 
    3300    298.93191     242.5903   -3086.3434   -2641.7048    1029.6735    12185.427 
    3350    307.80571    242.93203   -3097.7343   -2639.8967    761.99419    12184.149 
    3400    310.18146    243.08809   -3102.9365    -2641.565    587.85475     12183.11 
    3450     294.1866    242.41186   -3080.3953   -2642.8151    1080.5955     12182.25 
    3500    304.59588    242.86397   -3095.4657   -2642.4024    691.92445    12181.748 
    3550    302.57574    242.82964   -3094.3214   -2644.2629    666.86673    12181.484 
    3600    307.11466     242.9768   -3099.2265   -2642.4167    501.08219    12181.379 
    3650    312.02257    243.32026   -3110.6753   -2646.5654     259.6139    12181.375 
    3700    296.64427     242.7965   -3093.2166   -2651.9808    780.47933    12181.388 
    3750    304.53674    242.95449   -3098.4831   -2645.5078    558.20297    12181.604 
    3800    308.73027    243.18507   -3106.1691   -2646.9562    286.40377    12181.951 
    3850    285.63261    242.47186   -3082.3952   -2657.5384    911.36955    12182.334 
    3900     299.9409    243.01185    -3100.395   -2654.2557    493.81863    12182.974 
    3950    300.27493    243.08236   -3102.7453   -2656.1091    431.97765    12183.756 
    4000    294.62828    242.90008   -3096.6693   -2658.4321    648.91912     12184.62 
    4050    300.32765    248.13147   -3104.3825   -2657.6679    451.22464     12185.64 
    4100    296.24741    247.94164   -3098.0548   -2657.4092    516.19316    12186.782 
    4150    296.48773    248.08723   -3102.9077   -2661.9047    492.84041    12188.048 
    4200    302.81739    248.28318   -3109.4392   -2659.0213    334.11918    12189.425 
    4250    291.85925    247.94669   -3098.2228   -2664.1043     563.2705    12190.857 
    4300    285.57163    247.78373   -3092.7909   -2668.0247    619.07488    12192.445 
    4350    298.20248    248.14669   -3104.8895   -2661.3359    192.92928    12194.186 
    4400    291.25775    247.94012   -3098.0041   -2664.7803    382.15476    12195.913 
    4450     298.0022     248.2093   -3106.9765   -2663.7209    162.32536    12197.673 
    4500    281.56296    247.48791   -3082.9303   -2664.1268    730.90189    12199.428 
    4550    291.75915    247.99391   -3099.7971   -2665.8274     313.8877    12201.365 
    4600    295.89472     248.2513   -3108.3768   -2668.2559     80.67933    12203.336 
    4650     292.7056    248.05172   -3101.7241   -2666.3467    192.06825     12205.21 
    4700    300.50118    248.31173   -3110.3911   -2663.4183   -161.96582    12207.006 
    4750    287.25609    247.92456   -3097.4853   -2670.2136    213.31312    12208.603 
    4800      284.224    247.78621   -3092.8736   -2670.1119    411.55331    12210.154 
    4850     279.5285    247.57571   -3085.8569   -2670.0794    524.17433    12211.799 
    4900    303.37896    248.52181   -3117.3936   -2666.1404    -282.4898    12213.508 
    4950     299.4467    248.42248   -3114.0828   -2668.6785   -221.88556    12214.961 
    5000    293.72551    248.15857   -3105.2856   -2668.3912   -109.03964    12216.142 
    5050    300.79665    243.40443   -3113.4809   -2666.0686   -410.12045    12217.079 
    5100    304.40118    243.45009    -3115.003   -2662.2294    -444.7684    12217.637 
    5150    294.70386    243.12928   -3104.3093   -2665.9596    -45.05921    12217.807 
    5200    281.75143    242.65507   -3088.5022   -2669.4183    372.48612    12217.784 
    5250    291.40874    243.01088   -3100.3626   -2666.9142    67.626546    12217.749 
    5300    290.65065    242.93732   -3097.9106   -2665.5898    115.72545    12217.606 
    5350     283.9038    242.63398   -3087.7995   -2665.5141    391.00825    12217.377 
    5400    292.58603    242.92068   -3097.3559   -2662.1564    142.13356    12217.163 
    5450    292.70631    242.91999   -3097.3328   -2661.9544    89.521742    12216.872 
    5500     288.3928    242.71444   -3090.4815    -2661.519    217.42278    12216.473 
    5550    302.93369    243.31039   -3110.3463   -2659.7554   -223.39957    12215.991 
    5600    299.77829    243.22232   -3107.4105    -2661.513    -60.69597    12215.239 
    5650    294.30587    243.01503    -3100.501   -2662.7434    198.47256    12214.296 
    5700    304.41131    243.30997   -3110.3324   -2657.5437   -116.23361    12213.261 
    5750    298.87896    243.22862   -3107.6206   -2663.0608    16.720317    12212.001 
    5800    296.82683    243.10671   -3103.5569   -2662.0495    205.48166    12210.573 
    5850    295.40033    242.93499   -3097.8331   -2658.4475    306.54448    12209.098 
    5900    301.83461     243.1357   -3104.5232   -2655.5671    118.75569    12207.607 
    5950    297.17046    242.92223   -3097.4077   -2655.3891    319.55464    12206.018 
    6000    298.08867    242.96011   -3098.6704   -2655.2861    320.04589    12204.414 
    6050    302.02883    243.10086   -3103.3621   -2654.1171    222.26611      12202.8 
    6100    288.66105    242.52418   -3084.1393   -2654.7779    672.62177     12201.18 
    6150    301.20956     242.8911     -3096.37   -2648.3436    303.30688    12199.701 
    6200    297.24061    242.80035   -3093.3449    -2651.222    413.59796    12198.249 
    6250     303.4157    243.04058   -3101.3526   -2650.0447    274.35926    12196.832 
    6300    307.68917    243.09408    -3103.136   -2645.4716    259.26756    12195.399 
    6350    306.39834    243.00249   -3100.0831   -2644.3388     455.2136    12193.938 
    6400    307.33767      242.961   -3098.7001   -2641.5586    607.79115    12192.556 
    6450    308.73417     242.9437   -3098.1234   -2638.9047    695.33938     12191.33 
    6500    302.44595    242.70984   -3090.3282   -2640.4627    914.24326    12190.299 
    6550    302.11747     242.7003   -3090.0099    -2640.633    896.74497    12189.588 
    6600    304.73348     242.7405   -3091.3499    -2638.082    853.91629    12189.195 
    6650    305.43525    242.56315   -3085.4382   -2631.1264    945.95326    12189.112 
    6700    313.89604    242.78749   -3092.9164   -2626.0199    750.61237    12189.355 
    6750    313.50568    242.77849   -3092.6163   -2626.3004    818.13722     12189.85 
    6800     310.5791    242.59104   -3086.3681   -2624.4053    1007.0861    12190.615 
    6850     306.1825    242.38986   -3079.6621   -2624.2388    1161.4946    12191.749 
    6900    311.34647    242.52954   -3084.3181   -2621.2138    973.66592    12193.325 
    6950    310.72583    242.43228   -3081.0759   -2618.8948    1089.6693    12195.276 
    7000    314.13347    242.49142   -3083.0475   -2615.7978    1085.1399    12197.651 
    7050    307.80728    247.08391   -3069.4636   -2611.6236     1319.754    12200.466 
    7100    319.83105    247.57413   -3085.8043   -2610.0798    875.02466      12203.8 
    7150    310.39549    247.15225   -3071.7418    -2610.052    1133.6817     12207.51 
    7200    318.49227    247.43816   -3081.2719   -2607.5388    840.50554    12211.644 
    7250    323.12964     247.5374   -3084.5799    -2603.949    729.61601    12216.114 
    7300    304.43928    246.74804   -3058.2679   -2605.4375    1423.9642    12220.877 
    7350    316.34401    247.19509   -3073.1698   -2602.6321    1110.1823    12226.208 
    7400    312.37682    247.04262   -3068.0873   -2603.4505     1212.544    12232.045 
    7450    295.90494    246.46488   -3048.8294   -2608.6932     1672.364    12238.419 
    7500    306.75357    246.72614    -3057.538   -2601.2653     1236.213    12245.522 
    7550    306.15608    246.74171    -3058.057   -2602.6731    1149.8173    12253.194 
    7600    307.34245    246.72751   -3057.5837   -2600.4351    1174.2735    12261.357 
    7650    313.42942    246.92278   -3064.0928   -2597.8903    948.04575    12270.028 
    7700     322.3065     247.1753   -3072.5101   -2593.1036    623.52327    12279.072 
    7750    312.43521    246.87354   -3062.4512   -2597.7275    760.53529    12288.362 
    7800    323.15616    247.25159   -3075.0529   -2594.3826    237.95381    12297.879 
    7850    313.79906     246.9149     -3063.83   -2597.0777    351.81049    12307.422 
    7900    310.49163    246.75994   -3058.6647   -2596.8319    356.02986    12317.026 
    7950    310.75243    246.78081   -3059.3605   -2597.1398     276.1281    12326.679 
    8000    305.58955    246.58459   -3052.8196   -2598.2783    398.92407    12336.354 
    8050    296.83964    246.23826   -3041.2755    -2599.749    633.84297    12346.127 
    8100    308.16961    246.62304   -3054.1015   -2595.7226    185.28273    12356.069 
    8150    307.12467    246.63609   -3054.5365   -2597.7118    4.1987756    12365.996 
    8200    311.15608    246.76482   -3058.8274   -2596.0063   -262.43908    12375.775 
    8250    284.63365    245.76313   -3025.4378   -2602.0668    502.51791    12385.319 
    8300    291.06457    245.92825   -3030.9417   -2598.0052    223.88437    12394.935 
    8350    301.60493    246.35797   -3045.2658   -2596.6513   -291.75277     12404.54 
    8400    294.48275    246.12467   -3037.4891   -2599.4683   -177.29485    12413.859 
    8450    293.46167       246.11   -3036.9999   -2600.4979   -253.23506    12422.923 
    8500    301.66097    246.33232   -3044.4106   -2595.7128   -611.12017     12431.69 
    8550    296.53498    246.16843   -3038.9476   -2597.8743   -545.15577    12439.986 
    8600    290.12396    245.89876   -3029.9586   -2598.4212    -313.2754    12447.836 
    8650    303.16686    246.34737   -3044.9123   -2593.9746   -711.72524    12455.322 
    8700    303.89536     246.3684   -3045.6133   -2593.5919   -851.53517    12462.261 
    8750    294.39647    246.16164   -3038.7213   -2600.8289   -762.59242    12468.585 
    8800    295.18834    246.17331   -3039.1105   -2600.0402    -858.5912    12474.319 
    8850    284.84476    245.75711   -3025.2372   -2601.5522   -501.23757     12479.43 
    8900    299.20802    246.23558   -3041.1859   -2596.1366   -932.56738     12484.04 
    8950    290.39445    245.91986   -3030.6619   -2598.7222   -695.06243    12488.016 
    9000    292.38948    245.92441   -3030.8135   -2595.9063   -651.44025    12491.425 
    9050    295.36151    251.03212   -3034.4038    -2595.076   -764.44932    12494.296 
    9100    290.85676    250.90778   -3030.2593   -2597.6319   -762.41334    12496.594 
    9150    284.84225      250.714   -3023.8001   -2600.1188   -750.97652    12498.333 
    9200    301.81132    251.34053   -3044.6844   -2595.7629   -1402.1295    12499.441 
    9250    302.94114    251.31288   -3043.7628   -2593.1608   -1429.4023     12499.63 
    9300    295.61819    251.02184   -3034.0613   -2594.3517   -1058.0327     12498.86 
    9350    297.73437    251.07539   -3035.8463   -2592.9889   -1004.1625    12497.313 
    9400    294.24426    250.87592   -3029.1974   -2591.5314   -859.13327    12495.044 
    9450    282.09218    250.38837   -3012.9457   -2593.3549   -450.87474    12492.149 
    9500    285.31969    250.57374   -3019.1247   -2594.7332   -526.33254    12488.814 
    9550    285.25868    250.62573   -3020.8576   -2596.5569   -550.37917    12485.044 
    9600    299.94849    251.16281   -3038.7604   -2592.6098    -944.4403    12480.771 
    9650    290.64553    250.83511   -3027.8372    -2595.524   -547.24101    12475.852 
    9700    303.14594    251.20949   -3040.3164   -2589.4098   -786.29303    12470.424 
    9750    298.79233     251.1354   -3037.8466   -2593.4157   -622.39912    12464.429 
    9800    303.01621     251.2985   -3043.2834   -2592.5697   -723.33212     12457.91 
    9850    308.77594    251.40119   -3046.7063   -2587.4255   -812.39692    12450.819 
    9900    297.30823    251.03376   -3034.4587   -2592.2353   -364.57199    12443.149 
    9950    303.86887    251.33551    -3044.517    -2592.535   -426.27194     12435.07 
   10000    295.32799    250.94975   -3031.6584   -2592.3804    66.703224    12426.628 
   10050    297.37628    250.91773    -3030.591   -2588.2663    171.90988    12418.046 
   10100    298.86164    251.09972   -3036.6574   -2592.1233    159.78287    12409.396 
   10150    308.36139    251.39088   -3046.3628   -2587.6986   -84.264199    12400.673 
   10200    296.86168    250.95631   -3031.8769   -2590.3177    327.53409    12391.797 
   10250    298.36199    250.89874   -3029.9581   -2586.1673    475.11463     12382.93 
   10300    298.70007     250.9219     -3030.73   -2586.4363    597.06079    12374.185 
   10350    314.81864    251.48162   -3049.3872   -2581.1183    245.98534    12365.585 
   10400     319.7699    251.64046   -3054.6819   -2579.0484    198.41255    12357.002 
   10450    308.89427    251.17756   -3039.2519    -2579.795    623.05096    12348.394 
   10500     302.7987    251.03183   -3034.3942   -2584.0041    809.26637    12339.958 
   10550    327.27361    251.89095   -3063.0317    -2576.237    89.809662     12331.76 
   10600    322.56619    251.64896   -3054.9654   -2575.1727    354.36381    12323.524 
   10650    320.14843    251.48347   -3049.4491   -2573.2526    637.68159    12315.321 
   10700    298.01156    250.65344   -3021.7812   -2578.5116    1538.1757     12307.36 
   10750    312.10472    251.18232   -3039.4106   -2575.1785    1238.5381    12300.017 
   10800    318.68407    251.44353   -3048.1177   -2574.0993    1090.5845    12293.216 
   10850    313.83711    251.24322   -3041.4408   -2574.6319    1295.2731    12286.895 
   10900    313.68715    251.31009   -3043.6698   -2577.0839    1354.1197    12281.124 
   10950    318.50262    251.38231   -3046.0769   -2572.3284    1361.2205    12275.934 
   11000     322.2324     251.4473   -3048.2432   -2568.9469    1337.2205    12271.328 
   11050    318.14623      246.387   -3046.2332   -2573.0148    1407.3695    12267.336 
   11100    325.61669    246.57109   -3052.3697   -2568.0396    1201.1419    12263.932 
   11150     323.6819    246.51646   -3050.5485   -2569.0962    1341.2542    12261.026 
   11200     317.8895     246.3433   -3044.7766   -2571.9401    1557.7876    12258.687 
   11250    313.51052    246.11821   -3037.2738   -2570.9507    1779.0161     12257.04 
   11300     327.0817    246.63234   -3054.4115   -2567.9022     1378.502    12256.163 
   11350    334.20427    246.89627   -3063.2091   -2566.1056    1189.4495    12255.861 
   11400    318.73382    246.29452   -3043.1506   -2569.0582     1722.511    12256.086 
   11450    333.87504    246.84921   -3061.6403   -2565.0264     1264.984    12257.006 
   11500    319.01426    246.26755   -3042.2516    -2567.742    1624.5375    12258.521 
   11550    325.71121    246.46737   -3048.9123   -2564.4415    1328.0024    12260.708 
   11600    321.59941    246.38519   -3046.1729   -2567.8181    1388.3925    12263.487 
   11650    318.67217    246.40963   -3046.9875   -2572.9868    1368.6402    12266.842 
   11700    319.26756    246.45958   -3048.6527   -2573.7664    1198.4856    12270.769 
   11750    325.00346    246.75735   -3058.5784   -2575.1604    1024.5437    12275.196 
   11800    318.36192    246.57466   -3052.4888   -2578.9496    1387.6824    12280.038 
   11850    307.60016    246.21804   -3040.6013   -2583.0693     1655.785    12285.494 
   11900    314.32962    246.47555   -3049.1849   -2581.6434    1181.5407    12291.673 
   11950    312.55364    246.47736   -3049.2453   -2584.3454    1028.6019    12298.334 
   12000      312.432    246.61101   -3053.7004   -2588.9815    710.70645    12305.409 
   12050    313.98852    251.70096   -3056.6987   -2589.6646     445.0186    12312.741 
   12100     306.5519    251.51202   -3050.4006   -2594.4279     571.0072    12320.202 
   12150    303.84981    251.48246   -3049.4152   -2597.4617    435.24096    12327.828 
   12200    303.04961      251.405   -3046.8334   -2596.0701    342.55874     12335.56 
   12250     299.0522    251.34223   -3044.7409   -2599.9235    337.52202    12343.362 
   12300    301.58675    251.61306   -3053.7688   -2605.1813    78.550193    12351.204 
   12350    294.75362    251.41793   -3047.2644   -2608.8407    161.70472    12358.983 
   12400    295.20433    251.39067   -3046.3556   -2607.2615    99.276988    12366.707 
   12450    300.21369    251.61987   -3053.9957   -2607.4506    -181.0693    12374.346 
   12500    297.27454    251.56771    -3052.257   -2610.0837   -222.06771    12381.746 
   12550    294.11394    251.52241   -3050.7468   -2613.2747   -253.82559     12388.89 
   12600    296.31088    251.68953   -3056.3177   -2615.5777   -494.16644    12395.748 
   12650    288.08117    251.36417   -3045.4722   -2616.9733   -318.04212    12402.217 
   12700    286.10646    251.28824   -3042.9412   -2617.3795   -353.01829    12408.368 
   12750     291.6926     251.5935   -3053.1165   -2619.2459   -677.56102     12414.16 
   12800    282.14571    251.20354   -3040.1179   -2620.4475   -390.49165    12419.463 
   12850    295.61442    251.66668    -3055.556    -2615.852   -864.30905    12424.363 
   12900    300.82894    251.92222   -3064.0739   -2616.6137   -1195.2462    12428.652 
   12950    288.28147    251.41759    -3047.253   -2618.4562   -824.88111    12432.152 
   13000    290.14257    251.52114   -3050.7047   -2619.1396   -904.10933    12435.014 
   13050    285.42866     251.3806     -3046.02   -2621.4665    -766.1314    12437.251 
   13100    287.11811    251.37068   -3045.6892   -2618.6228   -799.90015    12438.906 
   13150    287.18221    251.40025    -3046.675   -2619.5132   -772.51686    12439.971 
   13200    289.32321    251.50535   -3050.1782   -2619.8319    -783.4559    12440.462 
   13250     287.6038    251.41693    -3047.231   -2619.4422   -728.00483    12440.383 
   13300    285.22226    251.40417   -3046.8058   -2622.5593   -712.92579    12439.757 
   13350     284.4268    251.41288    -3047.096   -2624.0326   -711.95088    12438.587 
   13400    277.80037    251.15354   -3038.4513   -2625.2443   -533.34124    12436.875 
   13450    292.90452    251.64054   -3054.6847   -2619.0115   -960.87751    12434.674 
   13500    284.31755    251.31085   -3043.6951   -2620.7943   -596.26317    12431.834 
   13550    282.42483     251.3081   -3043.6035   -2623.5179   -509.54031    12428.479 
   13600    290.73697    251.62079   -3054.0264   -2621.5772   -794.93045     12424.68 
   13650    291.30912    251.55958   -3051.9858   -2618.6856   -698.96852    12420.301 
   13700     277.9255    251.03382   -3034.4605   -2621.0674   -153.14626    12415.403 
   13750    285.94805    251.31214   -3043.7381    -2618.412   -349.90533    12410.233 
   13800    291.69845    251.47138   -3049.0461   -2615.1668   -510.43604    12404.721 
   13850    286.01701    251.19318   -3039.7728   -2614.3442   -200.29696    12398.795 
   13900    290.99758    251.40141   -3046.7138   -2613.8769   -218.40295    12392.581 
   13950    295.68641    251.60069   -3053.3564   -2613.5453   -260.05886    12386.093 
   14000    297.12768     251.6851   -3056.1701   -2614.2152   -241.84302    12379.313 
   14050    292.64348    251.39668   -3046.5559   -2611.2709    -38.63294    12372.271 
   14100    306.77906     251.9069   -3063.5635   -2607.2529   -394.36785    12365.003 
   14150    304.91946    251.85797   -3061.9323   -2608.3877   -174.33498    12357.408 
   14200    299.35867    251.66285   -3055.4282   -2610.1548    157.16284    12349.564 
   14250    292.25487     251.3823   -3046.0765   -2611.3695    407.66004    12341.658 
   14300    304.82953    251.73439   -3057.8129   -2604.4021    129.55926      12333.8 
   14350    307.33862    251.85231   -3061.7435   -2604.6006    197.51861    12325.859 
   14400    303.01726    251.67966   -3055.9888   -2605.2736    437.06134    12317.895 
   14450    304.12612     251.6793   -3055.9767   -2603.6122    489.84348    12310.008 
   14500    310.32221    251.86633   -3062.2111   -2600.6304    447.50563    12302.231 
   14550    303.92067    251.60271   -3053.4235   -2601.3645    748.19753    12294.594 
   14600    304.83874    251.59829   -3053.2764   -2599.8519    798.62634    12287.204 
   14650    301.37318    251.45411   -3048.4703   -2600.2006    965.40144    12280.115 
   14700      318.922    252.02261   -3067.4203   -2593.0479    489.01166    12273.386 
   14750    320.57523    252.08958   -3069.6526   -2592.8213    512.24046    12266.819 
   14800    309.28201    251.65957    -3055.319   -2595.2855    1026.7736    12260.379 
   14850     306.0593    251.51381   -3050.4605   -2595.2205    1240.0861    12254.342 
   14900     308.8483    251.58647   -3052.8822   -2593.4938    1239.8225    12248.835 
   14950    309.53846    251.65328   -3055.1094   -2594.6944    1362.1372    12243.861 
   15000    301.98342      251.401   -3046.7002   -2597.5227    1666.7698    12239.511 
   15050    318.30855    251.96528   -3065.5092   -2592.0493    1126.0034     12235.86 
   15100    311.01047    251.65211   -3055.0703   -2592.4658    1362.1314    12232.724 
   15150    316.47557    251.80375   -3060.1251   -2589.3917    1331.6897     12230.17 
   15200    311.95115    251.73815   -3057.9384   -2593.9347    1562.3096    12228.212 
   15250    317.36777    251.96106   -3065.3687   -2593.3082    1328.9497    12226.936 
   15300    315.47516    251.87801   -3062.6004    -2593.355    1251.7078    12226.246 
   15350    320.36196    251.98189   -3066.0631    -2589.549    1145.2602     12226.07 
   15400    313.02827    251.61563   -3053.8545   -2588.2486    1505.7006    12226.423 
   15450    317.72855    251.75081   -3058.3604   -2585.7632    1402.2834    12227.424 
   15500    324.63919    252.11149    -3070.383   -2587.5068    1008.0204    12229.017 
   15550    331.66445    252.40372   -3080.1241   -2586.7983    678.51555    12231.004 
   15600    324.34982    252.22047   -3074.0156   -2591.5699    926.62731    12233.244 
   15650     310.9077    251.72193   -3057.3977    -2594.946    1347.9874     12235.86 
   15700    313.26088    251.85073    -3061.691   -2595.7391     1213.071    12239.036 
   15750    293.05551    251.13779   -3037.9263   -2602.0284    1733.5199     12242.79 
   15800     319.6604    252.17906   -3072.6353   -2597.1647     761.4582    12247.232 
   15850    298.57551    251.44244   -3048.0813   -2603.9729    1376.0546    12252.056 
   15900    299.84881    251.53265   -3051.0882   -2605.0858    1276.9163     12257.44 
   15950    286.81216    251.12775   -3037.5915   -2610.9802    1494.4246    12263.414 
   16000    290.05942    251.33026   -3044.3421   -2612.9007    1268.3631    12270.045 
   16050      302.139    246.75482   -3058.4941   -2609.0852    883.67645    12277.227 
   16100    303.25572    246.74754   -3058.2515   -2607.1816    774.25287    12284.768 
   16150    307.18343    247.01039    -3067.013    -2610.101    454.68098    12292.567 
   16200    307.81089    247.02359   -3067.4532   -2609.6078    330.16762    12300.486 
   16250    302.45787    246.91752   -3063.9173   -2614.0342    346.77085     12308.44 
   16300    298.40849    246.84368   -3061.4559   -2617.5959    252.49803    12316.422 
   16350    299.51248    246.92301   -3064.1004   -2618.5982     46.44546     12324.38 
   16400    298.63539    246.90911   -3063.6369   -2619.4394   -16.998294     12332.22 
   16450    294.42903    246.84251   -3061.4169    -2623.476   -60.086108    12339.917 
   16500     305.4638    247.33872   -3077.9573   -2623.6031   -531.11004    12347.397 
   16550    286.18649    246.66498   -3055.4992   -2629.8185    93.497445    12354.489 
   16600    281.19934    246.48126   -3049.3753   -2631.1126    273.24629    12361.451 
   16650    281.22794    246.47661   -3049.2202    -2630.915    87.238529    12368.423 
   16700    295.20761    246.97945   -3065.9817   -2626.8827   -585.75313    12375.257 
   16750    289.58042    246.77141    -3059.047   -2628.3181   -586.07182    12381.655 
   16800    294.58691    246.93518   -3064.5061   -2626.3304   -752.44394     12387.56 
   16850    280.45464    246.40978   -3046.9928   -2629.8378   -269.88884     12392.93 
   16900    282.87528    246.54266   -3051.4221   -2630.6666   -413.41837    12397.964 
   16950    287.54301    246.71423    -3057.141   -2629.4426   -695.00466    12402.632 
   17000    291.14467    246.86388   -3062.1292   -2629.0736    -856.3204     12406.74 
   17050    282.45457    251.53011   -3051.0036   -2630.8738   -673.71903    12410.237 
   17100    284.90775    251.65325   -3055.1084   -2631.3297   -889.35086    12413.201 
   17150    286.97245    251.87723   -3062.5745   -2635.7247   -1059.8453    12415.525 
   17200    278.15717     251.6049   -3053.4967    -2639.759   -762.08886     12417.13 
   17250    268.93599    251.17994   -3039.3313   -2639.3094   -472.22673    12418.186 
   17300    289.67209    251.99769   -3066.5897   -2635.7244   -1184.8404    12418.772 
   17350    275.94509    251.42086    -3047.362   -2636.9146   -669.12782    12418.636 
   17400    276.45908    251.45748   -3048.5825   -2637.3706   -570.88769     12417.96 
   17450    284.16135    251.64143   -3054.7144   -2632.0459   -775.96877    12416.809 
   17500    289.45556    251.86012    -3062.004   -2631.4608   -1051.2832    12415.071 
   17550    294.92614    252.07724   -3069.2412   -2630.5609   -1175.2414    12412.604 
   17600    277.16983    251.36169   -3045.3898   -2633.1206   -436.12301    12409.375 
   17650    279.99541    251.45809   -3048.6032   -2632.1312   -383.30108    12405.722 
   17700    279.51662    251.39278   -3046.4261   -2630.6663   -275.67736    12401.733 
   17750    286.26843    251.69911   -3056.6372   -2630.8346   -414.65406    12397.422 
   17800    274.72399    251.26073   -3042.0242   -2633.3931   -31.553689     12392.78 
   17850    276.87857     251.2895   -3042.9834   -2631.1475    23.402869    12387.946 
   17900    277.30346    251.25943   -3041.9811   -2629.5133    78.206702    12383.003 
   17950    293.34046     251.7609   -3058.6966   -2622.3748   -439.80453    12377.926 
   18000    296.04475    251.85144   -3061.7145   -2621.3704   -463.31297    12372.486 
   18050    282.79556    251.33844   -3044.6148   -2623.9779    73.946273    12366.673 
   18100    290.24923    251.67065   -3055.6884   -2623.9647   -86.253998    12360.711 
   18150    287.17387    251.58551   -3052.8505   -2625.7011    46.945449    12354.582 
   18200    291.39863    251.75415   -3058.4716   -2625.0382   -64.653919    12348.321 
   18250    298.43309    251.98169   -3066.0563   -2622.1597   -252.72301    12341.885 
   18300    302.94526    252.12851   -3070.9504   -2620.3423   -297.24904    12335.158 
   18350    289.97761    251.59012    -3053.004   -2621.6843    340.63947     12328.16 
   18400    289.63629    251.58318   -3052.7725   -2621.9605    501.42636    12321.179 
   18450    299.01266    251.92437   -3064.1455   -2619.3869     268.0668    12314.309 
   18500    302.41482    252.08663   -3069.5543   -2619.7352    206.97224    12307.443 
   18550    301.67695    252.02819   -3067.6065   -2618.8849    321.04887    12300.551 
   18600    293.27425    251.67541   -3055.8471   -2619.6239    687.96245    12293.713 
   18650    295.02082    251.76158   -3058.7192   -2619.8981     730.9779    12287.087 
   18700    305.27361    252.12339   -3070.7796   -2616.7082    397.25313    12280.703 
   18750    310.79063    252.30626   -3076.8754   -2614.5979     226.0487    12274.397 
   18800    304.58189    252.09114   -3069.7046   -2616.6621     495.4924    12268.086 
   18850    304.32311    252.09232    -3069.744   -2617.0864    579.71163    12261.896 
   18900    303.17155    252.03373   -3067.7911   -2616.8464    762.45709    12255.865 
   18950    295.67371    251.68994   -3056.3312   -2616.5389    1041.9763    12250.127 
   19000    306.98101     252.0786   -3069.2867   -2612.6757    653.13558    12244.786 
   19050    312.37747    247.32735   -3077.5782   -2612.9404    511.27111    12239.649 
   19100    307.67625    247.11591   -3070.5302   -2612.8851    820.57538    12234.655 
   19150    298.79523    246.82728   -3060.9094   -2616.4742    1265.3497    12229.941 
   19200    313.93651    247.41756   -3080.5854   -2613.6286    864.26202     12225.71 
   19250    306.62947    247.04726   -3068.2421    -2612.154    1194.8438     12221.84 
   19300    306.86372     247.0976     -3069.92   -2613.4835    1164.1759    12218.416 
   19350       319.57    247.52616   -3084.2052   -2608.8691    755.23088    12215.443 
   19400    309.88444    247.14249   -3071.4164   -2610.4867    1177.2777    12212.756 
   19450    303.89805    246.99902   -3066.6339   -2614.6086    1426.9173    12210.535 
   19500    302.90435    246.91775    -3063.925   -2613.3777    1516.2247    12208.928 
   19550    300.48155    246.89516    -3063.172   -2616.2285    1522.3405    12207.976 
   19600    322.21878    247.75481   -3091.8271   -2612.5511    733.17719    12207.638 
   19650    307.45929    247.23135   -3074.3784    -2617.056     1086.054    12207.626 
   19700    313.75208     247.4573   -3081.9101   -2615.2277    830.35018    12207.995 
   19750    307.22634    247.13953   -3071.3177   -2614.3418    1083.6177    12208.679 
   19800    309.66258    247.17671    -3072.557   -2611.9574    1082.3306    12209.768 
   19850    315.58095     247.4315   -3081.0499   -2611.6471    840.62442    12211.272 
   19900    305.67141    247.05939   -3068.6462   -2613.9831    1110.0725    12213.106 
   19950    318.44035    247.58302   -3086.1006   -2612.4447      519.381    12215.325 
   20000    316.54937    247.53153   -3084.3845   -2613.5413    442.62211    12217.697 
   20050    313.96993    242.50298   -3083.4327   -2616.4262    517.40367    12220.138 
   20100    300.96231    242.22708   -3074.2361   -2626.5775    919.15762    12222.701 
   20150    280.14687    241.47677   -3049.2258   -2632.5286    1551.5268    12225.618 
   20200    294.25335    241.93313   -3064.4377   -2626.7581    987.34193    12229.142 
   20250    298.16778    242.07833   -3069.2776   -2625.7756    802.67529    12233.067 
   20300    301.40742    242.27425   -3075.8084   -2627.4877    586.71865     12237.26 
   20350    320.09838    242.91502   -3097.1673   -2621.0453   -94.720467    12241.573 
   20400    312.46712     242.6886   -3089.6199   -2624.8487    148.18463    12245.704 
   20450    297.35914    242.22624   -3074.2079   -2631.9087    614.42895    12249.743 
   20500    300.99949    242.45928    -3081.976   -2634.2621     418.0859    12253.914 
   20550    299.41647    242.36224   -3078.7413    -2633.382    454.95644    12258.167 
   20600    284.32139    241.86464   -3062.1546   -2639.2481    890.71296    12262.527 
   20650    286.93107    242.01715   -3067.2385   -2640.4503    642.98374    12267.186 
   20700    298.63028    242.42832    -3080.944   -2636.7541    49.137252    12272.018 
   20750    301.07139    242.43046   -3081.0153   -2633.1944   -163.58521    12276.729 
   20800    307.10162    242.72826   -3090.9418   -2634.1515   -397.83064    12281.169 
   20850    290.42383     242.1362   -3071.2065   -2639.2231    77.699156    12285.266 
   20900    298.59241    242.47807   -3082.6023   -2638.4687   -266.16905    12289.171 
   20950    285.31068    242.02186   -3067.3953   -2643.0173    92.226185    12292.824 
   21000    295.74717    242.40604   -3080.2013   -2640.2998   -299.98268    12296.312 
   21050    302.97477    237.72409    -3090.803    -2640.151   -579.37638    12299.462 
   21100    295.18719     237.4679   -3082.2633   -2643.1947   -422.79806    12302.126 
   21150    294.58341    237.55116   -3085.0386   -2646.8681   -485.49507    12304.358 
   21200    285.44261    237.21316    -3073.772   -2649.1978   -177.99762    12306.167 
   21250    287.30385    237.26068   -3075.3559   -2648.0132   -183.61499    12307.672 
   21300    284.70218    237.15651   -3071.8835   -2648.4106    -129.5591    12308.898 
   21350    292.62883    237.42555   -3080.8515   -2645.5883    -422.2699    12309.841 
   21400    292.13949    237.52633    -3084.211   -2649.6756   -554.70974    12310.383 
   21450    295.42638    237.68826   -3089.6088   -2650.1844     -705.568    12310.434 
   21500    297.80129    237.76651   -3092.2169     -2649.26   -696.36947    12309.904 
   21550    287.55546    237.38182   -3079.3939    -2651.677    -339.6373    12308.828 
   21600    294.18886    237.61559   -3087.1864   -2649.6028   -478.06334    12307.349 
   21650    288.27085    237.36106   -3078.7021    -2649.921   -287.80895    12305.443 
   21700    299.12095    237.81631   -3093.8769   -2648.9572   -632.78195    12303.144 
   21750     287.2786    237.33464   -3077.8212    -2650.516   -232.29356    12300.363 
   21800    294.22241    237.62174   -3087.3912   -2649.7577    -458.7326    12297.213 
   21850    284.66072     237.3601     -3078.67   -2655.2588   -154.67736    12293.653 
   21900     289.4907    237.50182   -3083.3939   -2652.7984   -192.22349    12289.788 
   21950    291.47062    237.56893    -3085.631   -2652.0906   -216.49351    12285.624 
   22000    284.95947    237.49226   -3083.0754   -2659.2198    -178.7644    12281.151 
   22050    287.00114    242.53899   -3084.6332   -2657.7407   -313.06293    12276.394 
   22100    299.70903    243.00926   -3100.3087   -2654.5142   -642.94537    12271.264 
   22150    290.24055    242.54357   -3084.7857   -2653.0749   -195.19999    12265.649 
   22200    286.78508    242.32383   -3077.4608   -2650.8898     101.5263     12259.75 
   22250     302.3579     242.8515   -3095.0501   -2645.3156   -182.16451     12253.69 
   22300    298.72104    242.69697   -3089.8991   -2645.5742    35.898354    12247.379 
   22350    287.64318    242.38691   -3079.5636   -2651.7162    372.62634    12240.908 
   22400    289.85803    242.51389   -3083.7964   -2652.6546    328.94376    12234.438 
   22450    281.43523    242.21014   -3073.6714   -2655.0578    705.27884    12228.012 
   22500     283.7521     242.2487   -3074.9568   -2652.8971    805.75806    12221.772 
   22550    297.18729    242.76978   -3092.3261   -2650.2825    383.91295    12215.773 
   22600    310.61853    243.14888   -3104.9625    -2642.941    74.122293    12209.801 
   22650    303.89552    242.81639   -3093.8797   -2641.8582    414.86885    12203.718 
   22700    307.95639    242.90882   -3096.9608    -2638.899    337.74612    12197.665 
   22750    310.89628    243.10597   -3103.5322   -2641.0976    295.90888    12191.612 
   22800    292.11766    242.33718   -3077.9061   -2643.4033    1110.5442    12185.591 
   22850    302.45965    242.65185   -3088.3949    -2638.509     888.9316     12179.93 
   22900    317.75446    243.19241   -3106.4138   -2633.7781    407.83454    12174.546 
   22950    297.73036    242.39438   -3079.8127   -2636.9613    1212.5104    12169.276 
   23000    294.24247    242.22844   -3074.2815   -2636.6181    1605.4297    12164.463 
   23050    323.56509      243.182   -3106.0667   -2624.7882    908.07611    12160.272 
   23100    314.77686    242.81035   -3093.6782   -2625.4715    1297.1706    12156.456 
   23150    308.08014    242.54871    -3084.957   -2626.7111    1660.7132    12153.145 
   23200    319.99858    242.77359   -3092.4531   -2616.4795    1447.6274    12150.531 
   23250    321.95853    242.77035    -3092.345   -2613.4561    1495.8747    12148.533 
   23300    318.00653    242.54105   -3084.7016    -2611.691    1687.4783    12147.162 
   23350    333.15402    243.03035   -3101.0115   -2605.4702    1195.0711    12146.466 
   23400    306.76875    242.03839   -3067.9462   -2611.6509    2072.4494    12146.326 
   23450     327.6245     242.6473   -3088.2432   -2600.9266    1616.4722    12147.041 
   23500    322.83148    242.48689   -3082.8964   -2602.7091    1763.9163    12148.498 
   23550    321.30331    242.44236    -3081.412   -2603.4977     1777.154    12150.706 
   23600    326.71999    242.56001   -3085.3337   -2599.3624    1520.2123    12153.693 
   23650    318.63313    242.25693   -3075.2311   -2601.2884     1767.806    12157.337 
   23700    317.05571     242.1964   -3073.2135   -2601.6171    1833.9803     12161.76 
   23750    314.48848    242.02531   -3067.5102   -2599.7324    1836.4976    12167.015 
   23800    326.70741    242.45093   -3081.6978   -2595.7453    1336.7677    12173.055 
   23850     329.0168    242.57446   -3085.8155   -2596.4279    1239.8143    12179.684 
   23900    322.26028    242.31892   -3077.2972   -2597.9594    1405.9295    12186.826 
   23950    329.59774    242.54461   -3084.8204   -2594.5687     1025.394    12194.546 
   24000    329.23856    242.57595   -3085.8651   -2596.1477    957.41757    12202.665 
   24050    314.29887    237.11021   -3070.3403   -2602.8445    1288.7384    12211.146 
   24100     314.6724     237.0536   -3068.4534   -2600.4021    1085.5793    12220.142 
   24150    338.19313    237.84317   -3094.7723   -2591.7356    197.76039    12229.502 
   24200    317.19639    237.25791   -3075.2636    -2603.458    625.84839    12238.873 
   24250     321.5878    237.33223   -3077.7411   -2599.4036    448.80581    12248.375 
   24300    327.71633    237.52599   -3084.1996   -2596.7464    246.19147    12257.935 
   24350    314.81808    237.16225    -3072.075    -2603.807    509.77366    12267.481 
   24400    316.67966    237.28155   -3076.0516   -2605.0146    279.83241    12277.105 
   24450    316.09325     237.2603   -3075.3433   -2605.1785    192.93674     12286.73 
   24500    314.04858    237.09059   -3069.6864   -2602.5629     200.7257    12296.279 
   24550    314.69069    237.21773   -3073.9243   -2605.8457    4.2117225    12305.747 
   24600    301.88607      236.721   -3057.3667    -2608.334    254.81692    12315.087 
   24650    301.49932     236.7988   -3059.9598   -2611.5024    77.553321    12324.357 
   24700    322.58827    237.58503   -3086.1678   -2606.3422   -763.60018    12333.471 
   24750    308.57887    237.07907   -3069.3024   -2610.3147   -450.42297    12342.044 
   24800    298.92549    236.75478   -3058.4928   -2613.8638   -155.42984    12350.176 
   24850     296.6833    236.62633   -3054.2109    -2612.917   -228.61608     12358.05 
   24900    313.14337    237.23768   -3074.5892   -2608.8122   -931.61048    12365.566 
   24950    300.87278    236.82848   -3060.9493   -2613.4238   -547.36453    12372.445 
   25000    292.71968    236.52787    -3050.929   -2615.5307   -338.35544    12378.824 
   25050    304.13124    236.98849    -3066.283   -2613.9109   -817.02258    12384.798 
   25100    296.49778    236.80469   -3060.1564   -2619.1384   -661.60914    12390.176 
   25150    296.27345    236.74998   -3058.3326   -2617.6483   -691.27797    12394.978 
   25200    297.79423    236.77086   -3059.0286   -2616.0822   -819.98911    12399.197 
   25250    294.40909    236.74757   -3058.2525   -2620.3412   -847.26134    12402.764 
   25300    301.53986    237.09325   -3069.7751   -2621.2574   -1159.9145    12405.646 
   25350    302.72434    237.10719   -3070.2397   -2619.9601   -1115.2922      12407.7 
   25400    289.30323    236.65278   -3055.0928   -2624.7762   -678.71044    12408.954 
   25450    298.82952    236.96583   -3065.5278   -2621.0415   -1004.7641    12409.576 
   25500    289.25001    236.64418   -3054.8061   -2624.5686   -804.40174     12409.48 
   25550    300.60708    237.10193   -3070.0643    -2622.934    -1136.925    12408.705 
   25600    298.31166    237.04295   -3068.0985   -2624.3825    -1119.246    12407.127 
   25650    302.77272    237.24591   -3074.8636   -2624.5121   -1326.3328    12404.714 
   25700    301.70053    237.25465   -3075.1551   -2626.3984    -1244.384    12401.371 
   25750    294.12692    236.93519   -3064.5063   -2627.0148   -932.51657     12397.14 
   25800    296.19115    237.08463   -3069.4875   -2628.9256   -943.01077    12392.165 
   25850     296.8577    237.10899   -3070.2996   -2628.7462   -867.51956    12386.477 
   25900    299.34453    237.17781   -3072.5937   -2627.3414   -912.64599    12380.091 
   25950    295.51882    237.02756   -3067.5854   -2628.0236   -768.88871    12373.001 
   26000    291.26851    236.93218   -3064.4058    -2631.166   -608.34757    12365.279 
   26050      297.363    237.14853   -3071.6175   -2629.3126   -660.14644    12357.006 
   26100    302.30116     237.3247     -3077.49   -2627.8399   -626.83547    12348.165 
   26150    295.32742    237.11909   -3070.6365   -2631.3593   -358.18778     12338.79 
   26200    298.28903    237.29466   -3076.4885   -2632.8062    -443.7958    12329.007 
   26250    298.37733    237.29334   -3076.4447    -2632.631   -276.76327    12318.812 
   26300    297.92336    237.29568   -3076.5225   -2633.3841   -90.022325    12308.275 
   26350    290.22321    237.07594   -3069.1979   -2637.5129    218.43833    12297.513 
   26400    311.59312    237.79536   -3093.1785   -2629.7074   -331.68006    12286.626 
   26450    309.20763     237.7655   -3092.1833   -2632.2604   -204.66372    12275.417 
   26500    310.99704    237.82926   -3094.3087   -2631.7242   -40.601114    12263.895 
   26550     306.7109    237.65852   -3088.6173   -2632.4081    272.56535    12252.182 
   26600    313.50984    237.95262   -3098.4207   -2632.0985    122.72921    12240.398 
   26650    303.75422    237.64671   -3088.2238   -2636.4124    435.41882    12228.527 
   26700    306.75179    237.77638   -3092.5461    -2636.276    386.79573    12216.687 
   26750     305.8419    237.74144   -3091.3814   -2636.4648    588.84091    12204.888 
   26800    295.37017    237.34333    -3078.111   -2638.7703     1128.336    12193.252 
   26850    309.47309    237.89179   -3096.3932   -2636.0754    811.08329    12182.006 
   26900      313.917    238.04424   -3101.4747    -2634.547    719.69213    12171.038 
   26950    307.00967    237.84395   -3094.7982   -2638.1446    985.97925    12160.291 
   27000    312.52795    238.05711   -3101.9038   -2637.0422    839.47657    12149.887 
   27050    313.20923     243.0916   -3103.0532   -2637.1782    840.60132    12139.786 
   27100    307.90056    242.95485   -3098.4949   -2640.5162    1067.5658    12130.002 
   27150    302.90205    242.95717   -3098.5723   -2648.0285     1326.234    12120.633 
   27200    311.77503    243.29252   -3109.7506   -2646.0089     1223.273    12111.796 
   27250    307.42593    243.17672   -3105.8907   -2648.6179    1456.0408    12103.489 
   27300    312.49309    243.35661    -3111.887   -2647.0772    1370.7245    12095.774 
   27350    308.75441    243.30484   -3110.1612   -2650.9125    1511.5857    12088.643 
   27400    292.53305    242.94382   -3098.1274   -2663.0067    1994.3926    12082.189 
   27450    308.45564    243.48605   -3116.2015   -2657.3971     1461.375    12076.589 
   27500    311.74082    243.58495   -3119.4983   -2655.8074    1275.4739    12071.639 
   27550    305.69157    243.41612   -3113.8708   -2659.1778      1492.15    12067.219 
   27600    314.48583    243.69699   -3123.2329    -2655.459    1215.6198      12063.4 
   27650     308.7793    243.60318   -3120.1061   -2660.8203    1364.3762    12060.094 
   27700     311.6295    243.68677   -3122.8923    -2659.367    1299.8197    12057.343 
   27750    300.18036    243.45709   -3115.2362   -2668.7407    1616.3617    12055.139 
   27800    295.04249    243.29925   -3109.9748   -2671.1215    1874.9217    12053.628 
   27850    299.68366    243.50432   -3116.8106   -2671.0538    1647.6542    12052.933 
   27900    305.48461    243.73924   -3124.6415   -2670.2563    1314.8699    12052.949 
   27950    318.77886    244.29333   -3143.1109   -2668.9515    798.64796    12053.473 
   28000     294.1032    243.42581   -3114.1937   -2676.7375    1562.5496    12054.312 
   28050      295.518     243.6061   -3120.2034   -2680.6427    1425.0199    12055.743 
   28100     299.9362     243.7699   -3125.6633   -2679.5309    1178.3038    12057.777 
   28150    295.01077    243.62312   -3120.7706   -2681.9644    1290.3704      12060.3 
   28200    300.08732    243.83926   -3127.9753   -2681.6181    1072.5531    12063.312 
   28250    300.33779    243.98338   -3132.7794   -2686.0497    866.38297    12066.727 
   28300    301.31394    244.00031   -3133.3438   -2685.1621     666.7696    12070.432 
   28350    296.77881    243.85693   -3128.5644   -2687.1284    731.35567    12074.328 
   28400    290.31712    243.62768   -3120.9226   -2689.0979     928.4646    12078.445 
   28450    289.82546     243.6494   -3121.6468   -2690.5534    930.73026    12082.899 
   28500    296.83868    243.95481    -3131.827   -2690.3019    653.81837    12087.666 
   28550    291.51358    243.65976   -3121.9919   -2688.3876    776.52619    12092.646 
   28600    297.94131    243.91006   -3130.3353   -2687.1702     553.1363    12097.842 
   28650    282.04997    243.32944   -3110.9812   -2691.4533    1035.0794    12103.217 
   28700    290.40203    243.67121   -3122.3736   -2690.4226    720.49364    12108.936 
   28750    296.12746    243.82443   -3127.4811   -2687.0139    464.03337     12114.88 
   28800    282.10547    243.27631   -3109.2104   -2689.5999    825.17937    12120.957 
   28850      296.688    243.81288    -3127.096    -2685.795    317.02244    12127.249 
   28900    287.59477    243.45864   -3115.2879   -2687.5125    565.32133    12133.589 
   28950    278.64652    243.17648   -3105.8827   -2691.4171    840.53072    12140.067 
   29000      281.819    243.26291   -3108.7635   -2689.5791    691.64383    12146.827 
   29050    280.78146    243.23286   -3107.7621    -2690.121    610.17468    12153.799 
   29100    273.08649    243.03114   -3101.0381   -2694.8426    681.96517     12160.94 
   29150    284.23004    243.33717   -3111.2391   -2688.4685    229.35131    12168.262 
   29200    292.86366    243.64715   -3121.5716   -2685.9591   -153.54636    12175.545 
   29250    287.02052     243.3529   -3111.7634   -2684.8422   -58.207857    12182.598 
   29300     282.6659    243.13587    -3104.529   -2684.0849    31.693143    12189.448 
   29350    287.75844    243.31364   -3110.4546   -2682.4358   -121.68625    12196.129 
   29400    288.62039    243.37992   -3112.6639   -2683.3629   -183.93244    12202.582 
   29450    295.64942    243.60052   -3120.0173   -2680.2612   -487.67202    12208.757 
   29500    295.45402    243.51884   -3117.2947   -2677.8293   -456.22789     12214.51 
   29550    280.26857    242.95543   -3098.5143    -2681.636    36.937089    12219.873 
   29600    285.32795    243.07938    -3102.646   -2678.2423   -129.43775    12225.035 
   29650    278.17665    242.76427   -3092.1422   -2678.3756    42.646348    12229.984 
   29700    286.40176    243.08463    -3102.821   -2676.8201   -221.86923    12234.756 
   29750    284.22043    242.99482   -3099.8272   -2677.0709    -171.8829    12239.263 
   29800    295.61288    243.44872   -3114.9573   -2675.2555   -584.65105    12243.471 
   29850    293.15016    243.30153    -3110.051   -2674.0124   -516.82545     12247.22 
   29900    287.24148     242.9437   -3098.1233   -2670.8734   -293.09882    12250.516 
   29950    277.54941    242.62717   -3087.5724   -2674.7387    -29.35765     12253.48 
   30000    286.42845     242.8687   -3095.6233   -2669.5827   -365.82004    12256.235 
   30050    303.61631    248.41483   -3113.8277   -2662.2214    -881.8476    12258.623 
   30100     298.7477    248.19081   -3106.3603   -2661.9958   -593.04121    12260.396 
   30150    278.57085    247.40286   -3080.0952   -2665.7422    149.35953    12261.716 
   30200    282.78248    247.57184   -3085.7281   -2665.1106    37.687857    12262.914 
   30250    279.78823    247.48939   -3082.9796   -2666.8158    106.11127    12263.995 
   30300    288.50111    247.67835   -3089.2784   -2660.1549   -117.17171    12264.971 
   30350    284.99897     247.4947   -3083.1567   -2659.2424     10.94658    12265.744 
   30400    281.10059    247.37274   -3079.0914   -2660.9756    99.654721    12266.361 
   30450    296.14283    247.91033   -3097.0109   -2656.5209   -309.75955    12266.853 
   30500    292.74476    247.60302   -3086.7673   -2651.3316    19.786877    12267.059 
   30550     286.8943    247.32225   -3077.4083   -2650.6748    316.02769    12267.128 
   30600    298.22447    247.72907   -3090.9691   -2647.3828   -58.795169    12267.179 
   30650    294.41182    247.50822   -3083.6073    -2645.692    144.49961    12267.068 
   30700    293.59876    247.32158   -3077.3859     -2640.68    266.63088    12266.876 
   30750    305.78468    247.72418   -3090.8059   -2635.9744   -96.258359    12266.641 
   30800    301.34306    247.56456   -3085.4852   -2637.2602    63.429048     12266.21 
   30850    295.86011    247.28716   -3076.2388   -2636.1693    289.01792    12265.655 
   30900    295.65159    247.26479    -3075.493   -2635.7336    328.85655     12265.09 
   30950    296.91638     247.3372   -3077.9067    -2636.266    234.50139    12264.546 
   31000     306.9446    247.61822   -3087.2738    -2630.717    -54.36494    12263.958 
   31050     296.3342    247.24874   -3074.9581   -2634.1835    325.52963     12263.23 
   31100    292.25823    247.07421   -3069.1402   -2634.4282    507.91021    12262.513 
   31150    287.04353    246.86229   -3062.0762   -2635.1207    705.29047    12261.922 
   31200    294.08604     247.1592   -3071.9732   -2634.5425    515.73431    12261.547 
   31250    302.99616    247.42945   -3080.9817   -2630.2978    343.21244    12261.308 
   31300     294.4893    247.07252   -3069.0839   -2631.0534    650.22162    12261.129 
   31350    293.70467    247.02015   -3067.3384    -2630.475     611.9942    12261.134 
   31400    302.57545    247.29476    -3076.492   -2626.4339     312.2391     12261.29 
   31450    302.68533    247.31155   -3077.0515     -2626.83    402.19532    12261.474 
   31500    297.00726    247.13658   -3071.2192   -2629.4434    582.47054    12261.728 
   31550    311.52917    247.67005   -3089.0015   -2625.6255    20.636081    12262.107 
   31600    307.61315    247.52619   -3084.2063    -2626.655    187.07492    12262.396 
   31650    292.67786    246.90515    -3063.505   -2628.1689    743.38269    12262.649 
   31700    303.97022    247.23662   -3074.5539   -2622.4212    380.49825    12263.089 
   31750     304.4764    247.27063   -3075.6877   -2622.8021    338.66722    12263.601 
   31800    307.44078    247.39244   -3079.7479    -2622.453    373.21117    12264.136 
   31850    307.82783    247.38953    -3079.651   -2621.7805    427.09346    12264.731 
   31900    307.30047    247.31883   -3077.2944   -2620.2082     413.6579    12265.405 
   31950    295.99929    246.83055   -3061.0183   -2620.7418    742.16727    12266.171 
   32000    306.60045    247.19053   -3073.0177   -2616.9727    417.45357    12267.135 
   32050    302.19577    242.09449   -3069.8163    -2620.323    557.73426    12268.183 
   32100    300.15684    242.04502   -3068.1672   -2621.7067    635.63394    12269.349 
   32150    296.10676    241.89189    -3063.063   -2622.6266    768.35306    12270.703 
   32200    311.08387    242.39551   -3079.8504   -2617.1367    337.57967    12272.272 
   32250    298.38344    241.88796   -3062.9318   -2619.1091    736.60372    12273.897 
   32300     302.2579    241.91865   -3063.9549   -2614.3692    557.25155    12275.721 
   32350    319.54668    242.53527   -3084.5089   -2609.2074   -43.188926    12277.645 
   32400    301.49148    241.96408   -3065.4694   -2617.0237    575.45016    12279.426 
   32450    296.74356    241.80707   -3060.2358   -2618.8522    764.24948    12281.318 
   32500    300.32809    241.93718   -3064.5727   -2617.8575    576.52011    12283.452 
   32550    313.88934    242.38723   -3079.5744   -2612.6878    161.73912      12285.7 
   32600     298.7141    241.79253   -3059.7511   -2615.4365     638.9046    12287.915 
   32650    316.11867    242.50935   -3083.6451   -2613.4425   -50.081075    12290.238 
   32700    318.97316    242.55001   -3085.0004    -2610.552   -291.50609    12292.388 
   32750    310.00282    242.21569   -3073.8564   -2612.7507    6.3239338    12294.189 
   32800    298.12557    241.84613   -3061.5376   -2618.0984    403.47491    12295.818 
   32850    311.20046     242.3516   -3078.3866   -2615.4995   -43.486021    12297.456 
   32900     308.0633    242.28257   -3076.0857   -2617.8648    42.019447    12298.927 
   32950    300.08454    241.88306   -3062.7687   -2616.4157    389.65073    12300.259 
   33000     310.3441    242.19632   -3073.2108   -2611.5975    115.51118    12301.591 
   33050    298.33734     241.7294   -3057.6466   -2613.8924    428.53947    12302.849 
   33100    301.94882    241.90781   -3063.5935   -2614.4675    223.89012    12304.133 
   33150    309.68363    242.16064   -3072.0213   -2611.3903   -134.46753    12305.372 
   33200    303.04263    242.01994   -3067.3314   -2616.5785     32.41233    12306.386 
   33250    300.42853    241.93905   -3064.6351   -2617.7704    257.06296    12307.238 
   33300    290.90542    241.57039   -3052.3464   -2619.6467    640.38042    12308.082 
   33350    305.56829    242.08335    -3069.445   -2614.9353    156.81452    12309.046 
   33400    296.21346    241.85592   -3061.8641    -2621.269    307.84743    12309.972 
   33450    307.47452    242.26084   -3075.3614   -2618.0163   -85.773251    12310.854 
   33500    307.24599    242.25469   -3075.1563   -2618.1512   -67.617616    12311.537 
   33550    292.15647    241.73475   -3057.8249   -2623.2643    393.17016    12312.051 
   33600     304.6564    242.24037   -3074.6788   -2621.5255   -39.541255     12312.56 
   33650    292.94574    241.78566    -3059.522   -2623.7874    282.74396    12312.923 
   33700    290.13172    241.74983   -3058.3278   -2626.7788    276.99698    12313.245 
   33750    301.89878    242.20015   -3073.3385   -2624.2869   -109.28407     12313.52 
   33800    284.37418    241.56986   -3052.3287   -2629.3437     449.5794    12313.633 
   33850    294.03038    241.93662   -3064.5542   -2627.2062    117.65277    12313.762 
   33900    304.07035    242.34742   -3078.2472   -2625.9656   -208.96583     12313.78 
   33950    293.18832    242.02268   -3067.4227   -2631.3272    135.07385    12313.547 
   34000    303.99094    242.41356   -3080.4521   -2628.2886   -160.58853    12313.166 
   34050     294.0182    237.10862   -3070.2872   -2632.9575    74.410312    12312.566 
   34100    310.04149    237.71246   -3090.4152    -2629.252   -432.59917    12311.753 
   34150    294.82399    237.20066   -3073.3554    -2634.827    2.0551974    12310.572 
   34200    291.38806    237.11366   -3070.4554   -2637.0378      2.61177    12309.172 
   34250     296.8403    237.37348   -3079.1159   -2637.5884   -304.29287    12307.574 
   34300    292.93181    237.21774   -3073.9248   -2638.2109   -171.86692    12305.651 
   34350    292.88932    237.23904   -3074.6348   -2638.9842    25.540445    12303.438 
   34400    281.33162    236.79778   -3059.9261   -2641.4667    529.01521    12301.082 
   34450    293.90027    237.31803   -3077.2678   -2640.1134    96.983831    12298.759 
   34500    291.57346    237.30887   -3076.9623   -2643.2689    37.293938    12296.345 
   34550    289.75105    237.30665   -3076.8885   -2645.9057    10.633504    12293.769 
   34600    288.18603    237.26796   -3075.5987   -2646.9438    11.156962    12291.019 
   34650    314.25074    238.24121   -3108.0404   -2640.6162   -786.27145    12288.036 
   34700    280.77286    237.06738   -3068.9126   -2651.2843    257.23573    12284.541 
   34750    283.60636    237.15479   -3071.8265   -2649.9835    218.55745    12280.939 
   34800    291.51206    237.48906   -3082.9685   -2649.3664   -28.230427    12277.268 
   34850    285.52475    237.28334   -3076.1112   -2651.4148    135.23784    12273.412 
   34900    294.41734    237.72026   -3090.6754   -2652.7519   -252.62698    12269.417 
   34950    305.52924    238.21042   -3107.0141   -2652.5625   -635.62805    12265.094 
   35000    293.73659    237.79999    -3093.333   -2656.4221   -235.96643     12260.28 
   35050    289.65072    232.70922   -3090.3073   -2659.4738   -1.2726885    12255.129 
   35100    281.85021     232.4796   -3082.6534   -2663.4226    337.61597    12249.789 
   35150    290.78937    232.78202   -3092.7339   -2660.2068    102.21131    12244.408 
   35200    294.30354    232.95671    -3098.557   -2660.8028   -120.45773    12238.885 
   35250    300.52795    233.22071   -3107.3571   -2660.3446    -335.5622     12233.09 
   35300     308.1632    233.49651   -3116.5505   -2658.1811   -450.22467    12226.921 
   35350    295.31901    233.14027   -3104.6756   -2665.4109   -46.969201     12220.34 
   35400    294.72635    233.15663   -3105.2209   -2666.8378    29.270808    12213.503 
   35450    290.33739    233.01518   -3100.5061   -2668.6513    172.66583    12206.501 
   35500    299.89331    233.32174   -3110.7246    -2664.656   -107.21286    12199.374 
   35550    286.50536    232.97329   -3099.1095   -2672.9545    298.17815    12192.027 
   35600     284.3476    232.95548   -3098.5159   -2675.5704     413.5881    12184.632 
   35650    295.56028      233.431   -3114.3666   -2674.7431    90.721239    12177.257 
   35700    293.02777    233.30805   -3110.2683   -2674.4117     216.3292    12169.758 
   35750    294.63896    233.44469   -3114.8231     -2676.57    163.58424     12162.17 
   35800     303.0742    233.65772   -3121.9239    -2671.124    7.5712029    12154.479 
   35850    292.87506    233.28953   -3109.6508   -2674.0214    428.97837    12146.638 
   35900    304.62217    233.71112   -3123.7039   -2670.6016    241.36682    12138.785 
   35950    284.52373    232.98949   -3099.6497   -2676.4422    938.65763     12130.94 
   36000    294.95453    233.37257   -3112.4191   -2673.6965    705.00498    12123.348 
   36050    292.49469    228.39585   -3113.1952   -2678.1315     832.0154    12115.964 
   36100    297.40946    228.58217   -3119.4057   -2677.0317    796.75373    12108.816 
   36150    302.43993    228.77294   -3125.7646   -2675.9081    713.11545    12101.879 
   36200    293.21353    228.35223    -3111.741   -2675.6081    1099.7014    12095.145 
   36250    305.04609    228.89973   -3129.9911   -2676.2582    832.11564    12088.742 
   36300     293.8821    228.53513   -3117.8377   -2680.7103    1196.5532    12082.636 
   36350    312.26541    229.19259   -3139.7528   -2675.2817     613.7649    12076.893 
   36400    308.70249    229.10597   -3136.8657   -2677.6942    750.16245    12071.315 
   36450     303.1115    228.99157   -3133.0524    -2682.197    1005.4082    12065.912 
   36500    307.35182    229.16143   -3138.7143   -2681.5517    927.19356    12060.824 
   36550    312.04366     229.2632   -3142.1065   -2677.9652    803.63215    12056.029 
   36600    302.27868    228.93798    -3131.266   -2681.6494    1074.4528    12051.462 
   36650    284.11985     228.4213   -3114.0433   -2691.4366    1584.9739    12047.286 
   36700    298.18037    228.97726   -3132.5755   -2689.0548    1209.7695    12043.678 
   36750    292.36272    228.78222    -3126.074   -2691.2067    1305.3328    12040.548 
   36800    307.92849    229.28589   -3142.8629   -2684.8426    797.83844    12037.879 
   36850    309.80242    229.36308    -3145.436   -2684.6284    782.35773    12035.441 
   36900    319.26733     229.6877   -3156.2568   -2681.3708     565.2701    12033.194 
   36950    304.42439    229.25943   -3141.9811   -2689.1729    1010.9257    12031.069 
   37000    282.50077    228.60629   -3120.2097   -2700.0112     1634.508    12029.282 
   37050    301.01849    229.28453   -3142.8177   -2695.0755    1085.0246    12028.093 
   37100     298.6662    229.28353   -3142.7842   -2698.5408    1172.8972    12027.312 
   37150    301.44768    229.40157   -3146.7189   -2698.3383    1075.7384     12026.93 
   37200    307.53268    229.58137   -3152.7124   -2695.2808    750.42746    12026.909 
   37250    303.06991    229.42641   -3147.5471   -2696.7536    863.39261    12027.095 
   37300    283.83261    228.85106   -3128.3686   -2706.1891    1404.5463    12027.557 
   37350    299.16464    229.45524   -3148.5079   -2703.5231    865.72585    12028.493 
   37400    289.08699    229.16837   -3138.9457   -2708.9507    1069.6182    12029.725 
   37450    298.20296    229.56359   -3152.1196   -2708.5653     656.9404    12031.275 
   37500      299.335    229.51576   -3150.5253   -2705.2872    538.29487    12032.986 
   37550    291.52546    229.36725   -3145.5751   -2711.9531    767.48709    12034.775 
   37600    291.75053    229.53835   -3151.2783   -2717.3215     688.4351    12036.752 
   37650    287.16996    229.42838   -3147.6127   -2720.4691    696.56106    12038.904 
   37700     283.8183     229.3922   -3146.4066   -2724.2484    693.98832     12041.21 
   37750    283.76695    229.42805   -3147.6016   -2725.5198    603.71569    12043.678 
   37800    288.12126    229.63391   -3154.4637   -2725.9051    381.52463    12046.266 
   37850    280.57913    229.40501   -3146.8337   -2729.4935    545.78242    12048.894 
   37900    288.20112    229.64569   -3154.8562   -2726.1789    224.58539    12051.579 
   37950    280.74402    229.46977   -3148.9923   -2731.4069    409.72336    12054.206 
   38000    276.02418    229.27925   -3142.6416   -2732.0766     575.3141    12056.857 
   38050    273.44597    229.29027   -3143.0089   -2736.2787     544.2153    12059.616 
   38100    281.32394    229.55824   -3151.9414   -2733.4934    217.59109     12062.45 
   38150    290.81241    229.79083   -3159.6942   -2727.1328   -85.521044    12065.204 
   38200    281.71733    229.45701   -3148.5669   -2729.5338    159.47618     12067.74 
   38250    278.77078    229.40109   -3146.7032   -2732.0528    230.97509     12070.15 
   38300    268.74941    229.08805   -3136.2683   -2736.5239     451.7226    12072.514 
   38350    274.82603    229.24869   -3141.6231   -2732.8403    303.72968    12074.907 
   38400    284.34832     229.5113   -3150.3766     -2727.43    89.475525    12077.268 
   38450    281.65379     229.4415   -3148.0499   -2729.1112    159.31029    12079.504 
   38500    279.71303    229.37166   -3145.7221   -2729.6701    285.09891     12081.61 
   38550    269.62493    229.06217   -3135.4058   -2734.3591    508.40272    12083.678 
   38600    277.76481    229.37048   -3145.6826   -2732.5285    102.45238    12085.787 
   38650    287.46838    229.65865   -3155.2884    -2727.701   -161.18407    12087.759 
   38700    283.17135    229.54255   -3151.4184   -2730.2225    35.387039    12089.486 
   38750    287.91771    229.70301   -3156.7671   -2728.5113    -39.85069    12091.002 
   38800    286.63493    229.61742   -3153.9141   -2727.5663    3.1943686    12092.309 
   38850    284.75736    229.49114   -3149.7048   -2726.1498    13.391099    12093.423 
   38900    291.70875    229.70937   -3156.9789   -2723.0842   -213.21843    12094.311 
   38950    262.28559    228.65981   -3121.9937   -2731.8638    653.75455     12094.95 
   39000    274.05493    229.08734   -3136.2447   -2728.6088    309.28132    12095.676 
   39050    281.38287    234.31696   -3143.8986   -2725.3629    99.416259    12096.403 
   39100    284.45978    234.37009   -3145.6697   -2722.5573    36.274994    12097.011 
   39150    294.35456    234.66731   -3155.5771    -2717.747   -212.71431    12097.441 
   39200    286.58393    234.34167   -3144.7225   -2718.4506    77.272289    12097.596 
   39250    295.42455    234.67066   -3155.6887   -2716.2671   -160.44208    12097.557 
   39300    274.14173    233.93911   -3131.3036   -2723.5386    436.05916    12097.309 
   39350    286.89275     234.3055   -3143.5168   -2716.7855    36.849607    12097.048 
   39400    292.03499    234.46478   -3148.8262   -2714.4462   -130.18715    12096.642 
   39450    290.98465    234.39277   -3146.4257   -2713.6081   -36.477037    12095.997 
   39500    286.37913    234.20144   -3140.0479   -2714.0807    213.87704    12095.139 
   39550    276.93279    233.81476   -3127.1585    -2715.242    556.49005    12094.229 
   39600    296.49276    234.43179   -3147.7265    -2706.716    28.142251    12093.379 
   39650    284.08704    233.96744    -3132.248   -2709.6901    491.82217    12092.419 
   39700    289.44947    234.12582   -3137.5272    -2706.993    442.66066    12091.481 
   39750    280.25265    233.73063   -3124.3543   -2707.4997    768.54489    12090.615 
   39800    287.34581    233.97612   -3132.5372   -2705.1321    539.61096    12089.951 
   39850    297.07614    234.30029   -3143.3429   -2701.4646    311.45896    12089.386 
   39900    286.27751    233.90314   -3130.1048   -2704.2887    707.36829    12088.834 
   39950    288.93599    233.90764   -3130.2547   -2700.4843    631.33073     12088.44 
   40000    287.62009    233.88418   -3129.4727   -2701.6596    640.25305      12088.2 
   40050    284.46165    228.75619   -3125.2062   -2702.0911    791.44767     12088.12 
   40100    287.32895    228.76565   -3125.5216   -2698.1415    753.21597    12088.249 
   40150    295.83766    229.06114   -3135.3715   -2695.3354    473.51977    12088.564 
   40200    292.84599     228.9731   -3132.4368   -2696.8506    592.07862     12088.94 
   40250    286.45312    228.70409   -3123.4695   -2697.3922    811.81501    12089.438 
   40300    298.55555    229.00413   -3133.4711   -2689.3923    471.53895    12090.136 
   40350     299.6522    229.00908   -3133.6359   -2687.9259     394.7124    12090.896 
   40400    316.23714    229.61787    -3153.929   -2683.5502   -212.27118     12091.61 
   40450    307.17268    229.21719    -3140.573   -2683.6769    94.860037    12092.038 
   40500    302.48897    229.08792   -3136.2639   -2686.3345    341.99053    12092.282 
   40550    292.54517    228.68722   -3122.9073   -2687.7685    724.92342    12092.517 
   40600    298.48518    228.88251   -3129.4168   -2685.4427    663.79679    12092.905 
   40650      295.973    228.73126   -3124.3753   -2684.1379    743.43764    12093.462 
   40700    308.62822    229.19502    -3139.834    -2680.773    229.33816    12094.169 
   40750    298.35113    228.78047   -3126.0156   -2682.2409     573.9826    12094.838 
   40800    291.84564    228.58689   -3119.5629   -2685.4646    883.65012    12095.608 
   40850    290.48836    228.49698   -3116.5659   -2684.4865    993.13874    12096.639 
   40900    294.92293    228.59529   -3119.8429   -2681.1674    839.21418    12097.982 
   40950     299.6952     228.7951   -3126.5032   -2680.7293     615.8714    12099.578 
   41000    307.95135    229.05435    -3135.145   -2677.0907     320.5324    12101.291 
   41050    294.86126    228.66724   -3122.2413   -2683.6576    655.36348    12102.991 
   41100    297.25671    228.70562   -3123.5207   -2681.3738    636.31351    12104.809 
   41150    295.19203    228.63517   -3121.1724   -2682.0966    668.13275    12106.781 
   41200    305.40722    228.87163   -3129.0545   -2674.7844    479.76997    12108.879 
   41250    301.73364    228.72681   -3124.2268   -2675.4209    605.07592    12111.061 
   41300    309.22244    228.86351   -3128.7838   -2668.8389    426.18894    12113.334 
   41350    305.43208    228.78402    -3126.134   -2671.8269     508.4985    12115.649 
   41400    310.19509    228.97664   -3132.5547    -2671.163     394.8553    12118.008 
   41450    298.97144    228.55658   -3118.5526   -2673.8552    738.83005    12120.392 
   41500    301.58577    228.59992   -3119.9974   -2671.4114    631.70571    12122.946 
   41550    309.00591    228.87387   -3129.1289    -2669.506    326.85992    12125.622 
   41600    308.99066      228.809   -3126.9665   -2667.3663    272.26373    12128.276 
   41650    298.43113    228.41122   -3113.7075   -2669.8138    554.11908    12130.886 
   41700     294.9821    228.35817    -3111.939   -2673.1755    637.31706    12133.588 
   41750    302.54506    228.60327   -3120.1089   -2670.0961    367.85913     12136.41 
   41800    300.92438    228.55999   -3118.6663   -2671.0641    349.97637    12139.235 
   41850    305.47768    228.75848   -3125.2828   -2670.9079    241.78524    12142.017 
   41900    292.41441    228.28796   -3109.5988   -2674.6545    718.93817    12144.749 
   41950    302.16884    228.67542   -3122.5141   -2673.0608    414.16079    12147.626 
   42000    297.35499    228.45214   -3115.0714   -2672.7784    544.93626    12150.558 
   42050    307.04132    228.70243   -3123.4144   -2666.7137    208.21887    12153.543 
   42100     309.6405    228.82562   -3127.5206   -2666.9538    35.260949    12156.436 
   42150    295.53453    228.34353   -3111.4509   -2671.8657    479.22968    12159.161 
   42200    307.32558    228.65869   -3121.9564   -2664.8329    153.21434    12161.896 
   42250    301.83921    228.39062   -3113.0207   -2664.0578     244.8894    12164.533 
   42300     308.9758    228.61153   -3120.3844   -2660.8063     10.21201     12167.05 
   42350    298.80653    228.32797   -3110.9324   -2666.4803    312.65748    12169.395 
   42400    307.45767    228.55376   -3118.4588   -2661.1389    34.244485    12171.666 
   42450    305.22959    228.52456   -3117.4855   -2663.4796      49.5314    12173.757 
   42500    293.55654    228.09704   -3103.2347   -2666.5916    542.47016    12175.686 
   42550    291.93536    228.04558   -3101.5193   -2667.2876    664.01118    12177.678 
   42600    303.19184    228.46503    -3115.501   -2664.5261    205.27538    12179.791 
   42650    302.74811    228.37974   -3112.6579    -2662.343    106.32384    12181.839 
   42700    301.37666     228.3617   -3112.0568   -2663.7819    37.938019    12183.735 
   42750    315.25769     228.8103     -3127.01   -2658.0881   -424.32085     12185.41 
   42800    303.59068    228.41123   -3113.7078   -2662.1397   -6.8472259    12186.684 
   42850    299.54627     228.2921   -3109.7368   -2664.1844    205.09021    12187.729 
   42900    310.74703    228.61137   -3120.3789   -2658.1662    -183.9118    12188.629 
   42950     310.8615    228.57458   -3119.1526   -2656.7697    -154.3951     12189.23 
   43000    299.52462    228.13018   -3104.3393   -2658.8191    252.32834    12189.556 
   43050    306.09688    228.31378   -3110.4594   -2655.1635    1.0994649    12189.759 
   43100    296.42228    228.05594   -3101.8647    -2660.959     264.1251    12189.781 
   43150    299.83436     228.1351   -3104.5033   -2658.5224    327.68763    12189.704 
   43200    306.67984    228.27429    -3109.143     -2652.98    204.33459    12189.585 
   43250      307.216    228.23885   -3107.9617   -2651.0012    146.80425    12189.346 
   43300    307.96783    228.34135   -3111.3784   -2653.2996   -21.644958    12188.954 
   43350    300.54994     228.1668     -3105.56   -2658.5148     61.11821    12188.348 
   43400    302.02005    228.15163   -3105.0544   -2655.8225    94.049586    12187.541 
   43450    296.33577      227.944   -3098.1334   -2657.3564    337.85726    12186.595 
   43500    300.01135    228.05628   -3101.8762    -2655.632    276.16462    12185.599 
   43550    312.28146     228.4514   -3115.0467   -2650.5517    27.660176    12184.513 
   43600    312.62828    228.54071   -3118.0236   -2653.0127    74.858997    12183.229 
   43650    303.33594    228.22467   -3107.4891   -2656.2999    416.30335    12181.773 
   43700    299.55008     228.1351   -3104.5035   -2658.9454    590.61078    12180.312 
   43750    309.43818    228.37055   -3112.3515   -2652.0857    268.85092    12178.922 
   43800    312.59167    228.49616   -3116.5387   -2651.5823    54.104473    12177.458 
   43850    315.63185    228.52868   -3117.6226   -2648.1442    7.6753867    12175.794 
   43900    305.68283    228.11371   -3103.7903   -2649.1103    458.64512    12173.927 
   43950    305.71377    228.15655   -3105.2184   -2650.4923     552.7179    12172.061 
   44000    300.79813    228.00433   -3100.1442   -2652.7298    790.07467    12170.277 
[...]
   89400    306.48097    264.10425   -2970.1416   -2514.2744   -1005.2274    12710.166 
   89450    301.74354    263.86087   -2962.0289   -2513.2082   -740.19233    12707.697 
   89500    299.79801    263.73382   -2957.7938    -2511.867   -552.71962    12704.659 
   89550    294.99448    263.56333   -2952.1111   -2513.3292   -452.69187    12701.183 
   89600    305.12155    263.96723   -2965.5743   -2511.7291   -740.02652    12697.288 
   89650    296.03035    263.56651    -2952.217   -2511.8943   -281.33088    12692.897 
   89700    306.06004    263.90755   -2963.5851    -2508.344   -487.67136    12688.163 
   89750    299.78103    263.60449   -2953.4831   -2507.5815     -279.143    12683.041 
   89800    300.71919    263.58007   -2952.6691   -2505.3721   -255.16672    12677.618 
   89850     308.7174    263.85364    -2961.788   -2502.5943   -397.99793    12671.907 
   89900    306.74161    263.66716   -2955.5719    -2499.317   -188.29704    12665.863 
   89950    300.42675    263.44294    -2948.098    -2501.236     170.1639    12659.594 
   90000     297.4627    263.19419   -2939.8063    -2497.353    358.04368    12653.302 
   90050    323.57051    264.20661   -2973.5538   -2492.2672   -363.63873    12647.024 
   90100    308.77465    263.59742   -2953.2474   -2493.9686    399.87987    12640.495 
   90150    309.85694    263.56777   -2952.2589   -2491.3702    571.38482    12634.028 
   90200    326.32907    264.05836    -2968.612   -2483.2223    199.18675    12627.744 
   90250    317.51504    263.62551   -2954.1836    -2481.904    681.88081      12621.5 
   90300    314.34944    263.43879   -2947.9597   -2480.3887    867.07702    12615.514 
   90350    332.46192    264.08156   -2969.3853   -2474.8734    246.46993    12609.856 
   90400    325.28614    263.72668    -2957.556   -2473.7175    661.09319    12604.261 
   90450    309.38952    263.10335   -2936.7784   -2476.5849    1527.2198    12598.933 
   90500    312.28084     263.2415   -2941.3832   -2476.8891     1533.362    12594.329 
   90550    320.28948     263.3597   -2945.3233    -2468.917    1263.0688     12590.47 
   90600    316.16295    263.20351   -2940.1169   -2469.8485    1230.3177    12587.243 
   90650    329.46537    263.57416   -2952.4721   -2462.4173    830.34686    12584.576 
   90700    322.87558     263.3908     -2946.36   -2466.1071    1122.9945    12582.314 
   90750    327.64138    263.48958   -2949.6526   -2462.3109    1113.9608    12580.555 
   90800    330.30162    263.60419    -2953.473   -2462.1744    1115.4334    12579.303 
   90850    327.19433    263.40183   -2946.7277   -2460.0509    1276.1345    12578.589 
   90900    320.99087    263.22716   -2940.9054   -2463.4558    1496.5549    12578.496 
   90950    312.78524    262.89637   -2929.8791   -2464.6347    1727.4314    12579.156 
   91000     323.5123     263.2984   -2943.2799   -2462.0799    1299.8487    12580.651 
   91050    317.22976    263.08642   -2936.2141   -2464.3588    1459.9132    12582.837 
   91100    332.84383    263.71664   -2957.2213   -2462.1414    982.69951    12585.704 
   91150    320.17286    263.22469   -2940.8231   -2464.5903    1446.4833    12589.088 
   91200    318.71641    263.20371   -2940.1237   -2466.0572    1431.0097    12593.186 
   91250    328.13963    263.67531   -2955.8436   -2467.7608    900.46863    12597.993 
   91300    337.36802    263.97127    -2965.709   -2463.8996    540.83975    12603.215 
   91350    323.78337    263.40184   -2946.7279   -2465.1247    931.96806      12608.7 
   91400    318.81871    263.22145   -2940.7149   -2466.4962    958.39258    12614.605 
   91450    338.77682    264.15145    -2971.715   -2467.8102    138.50151    12620.904 
   91500    333.24938    264.01211   -2967.0704   -2471.3872    280.22505    12627.267 
   91550    320.30102    263.51883   -2950.6277   -2474.2042    688.11639     12633.72 
   91600    333.06897    264.02479    -2967.493   -2472.0781    170.96987    12640.407 
   91650    334.40899    264.12207   -2970.7357   -2473.3277   -39.447359    12647.123 
   91700    316.54099    263.43985    -2947.995   -2477.1643    428.21886    12653.769 
   91750    308.29941    263.16637    -2938.879    -2480.307    691.27929    12660.557 
   91800    312.77305    263.41167   -2947.0557   -2481.8295    422.40065    12667.639 
   91850    308.66448    263.24013   -2941.3378   -2482.2228    389.68359    12674.897 
   91900    313.98395    263.45138   -2948.3793    -2481.352    192.27734    12682.259 
   91950    309.86699    263.44098   -2948.0326    -2487.129    226.41174    12689.674 
   92000    300.64121    263.10941   -2936.9803   -2489.7993    327.81758    12697.141 
   92050    306.59032    263.37163   -2945.7211   -2489.6913    -138.3751    12704.681 
   92100    309.50447    263.39803    -2946.601   -2486.2365    -388.7919    12712.065 
   92150    297.21769    262.99609   -2933.2029   -2491.1141   -162.88656     12719.17 
   92200    313.50416    263.65489   -2955.1629   -2488.8493    -837.9798    12726.027 
   92250     301.5065    263.22425   -2940.8085   -2492.3404   -564.05526    12732.364 
   92300    292.52732    262.88625   -2929.5417   -2494.4295   -248.36867     12738.27 
   92350    306.30303    263.47133   -2949.0442   -2493.4417   -720.14496    12743.889 
   92400    307.72478    263.59987   -2953.3289   -2495.6117   -841.07333    12749.001 
   92450     297.1859    263.14446   -2938.1488   -2496.1073   -574.29654    12753.548 
   92500    305.42009    263.43903   -2947.9678   -2493.6786   -891.87356    12757.602 
   92550    299.01488    263.22635   -2940.8782   -2496.1162   -697.34717    12761.052 
   92600    308.04821    263.62574   -2954.1913    -2495.993   -1009.4348    12763.949 
   92650    300.05587    263.35045   -2945.0149   -2498.7045   -806.29276    12766.173 
   92700    296.67626    263.18394   -2939.4645   -2498.1811   -670.13108    12767.804 
   92750    292.36116     263.1527   -2938.4234   -2503.5583   -516.96043    12768.934 
   92800    298.50033    263.40309   -2946.7698   -2502.7732   -650.20786    12769.622 
   92850    291.98629     263.2042   -2940.1399   -2505.8324   -478.21774    12769.834 
   92900     289.7149    263.12992   -2937.6641   -2506.7352   -492.76921    12769.635 
   92950    288.04073    263.14359   -2938.1195   -2509.6808   -525.26839    12769.033 
   93000    302.87255    263.72754   -2957.5847   -2507.0847   -990.42148     12767.97 
   93050    311.02505    263.96855   -2965.6184   -2502.9922   -1265.1223    12766.205 
   93100    303.72055     263.7316     -2957.72   -2505.9587   -1038.5911    12763.581 
   93150    295.89197    263.47044   -2949.0146   -2508.8977   -766.30343    12760.213 
   93200    298.86095    263.64022   -2954.6739   -2510.1409   -876.86866    12756.228 
   93250    292.32478    263.28686   -2942.8954   -2508.0845   -640.07226    12751.605 
   93300    300.69268    263.64663   -2954.8877   -2507.6301   -961.13604    12746.432 
   93350    297.23366    263.53573   -2951.1909   -2509.0783   -860.25293    12740.586 
   93400    295.75354     263.4465   -2948.2168   -2508.3058   -686.09161    12734.074 
   93450     290.5855     263.2509   -2941.6967   -2509.4727   -428.84282    12727.006 
   93500    293.67613    263.43601   -2947.8671   -2511.0461   -442.63258    12719.522 
   93550    295.93938    263.55596   -2951.8653   -2511.6779   -399.31418    12711.645 
   93600    296.33032    263.60976   -2953.6586   -2512.8897   -316.84804    12703.386 
   93650    303.07266    263.86112   -2962.0372   -2511.2396   -515.46198     12694.77 
   93700      302.966    263.85685   -2961.8951   -2511.2562   -594.12612    12685.719 
   93750    312.12334    264.28175   -2976.0583   -2511.7985   -863.67011    12676.142 
   93800    304.91461    264.01058   -2967.0195   -2513.4821   -443.48369    12665.948 
   93850    305.70549    264.00599   -2966.8664   -2512.1527   -286.16251    12655.318 
   93900    307.74814    264.12305   -2970.7685   -2513.0164   -278.36323    12644.356 
   93950    303.48268     264.0254   -2967.5133   -2516.1058   -142.29616     12633.08 
   94000    301.83684    263.98329   -2966.1095   -2517.1501   -67.678068    12621.569 
   94050    304.38259    264.18212   -2972.7374   -2519.9913   -99.370803    12609.853 
   94100    301.00119    264.03428   -2967.8094    -2520.093    192.18989    12597.931 
   94150    298.43359    263.98385   -2966.1283    -2522.231    431.89592    12585.974 
   94200    301.04426    264.05001   -2968.3337   -2520.5532    486.23787    12574.116 
   94250    320.31987    264.81733    -2993.911   -2517.4594    -147.8398    12562.357 
   94300    326.52761    265.14448   -3004.8161    -2519.131   -357.84853    12550.381 
   94350     315.6609    264.71534   -2990.5113   -2520.9896    182.19245    12538.079 
   94400    327.82172    265.18595   -3006.1984   -2518.5885   -141.52238    12525.693 
   94450    322.73451    265.11288   -3003.7628   -2523.7197    6.5556509    12513.103 
   94500    297.07765    264.18949    -2972.983   -2531.1025    1005.4482    12500.421 
   94550    298.99176    264.35579   -2978.5264   -2533.7988    1093.4302    12488.127 
   94600    299.96522    264.45135   -2981.7117   -2535.5362    1169.3599    12476.338 
   94650    304.87933    264.60577   -2986.8591   -2533.3742    1129.7272    12465.066 
   94700     307.6291    264.74891   -2991.6304   -2534.0554    1178.8772      12454.3 
   94750    299.80049    264.53635   -2984.5449   -2538.6144    1472.3647    12444.087 
   94800    303.67124    264.84033   -2994.6777   -2542.9897    1206.7261    12434.536 
   94850    316.30892    265.36447    -3012.149   -2541.6634    776.66546    12425.538 
   94900    304.24981    264.92576   -2997.5255   -2544.9769    1306.3492    12416.931 
   94950     306.2368    264.94441   -2998.1471    -2542.643    1297.6394    12408.912 
   95000     321.3364     265.6013   -3020.0432   -2542.0797    740.71157     12401.46 
   95050    309.62027    265.31726   -3010.5753   -2550.0386    1114.8517    12394.349 
   95100    310.31298    265.43545   -3014.5149   -2552.9479    1116.5811    12387.697 
   95150    299.64106    265.02817   -3000.9389   -2555.2455    1471.0412    12381.584 
   95200    300.98392    265.20982    -3006.994   -2559.3032    1340.0912    12376.142 
   95250    305.04976    265.36718   -3012.2394    -2558.501    1224.5051    12371.334 
   95300    294.12834    265.04424   -3001.4747   -2563.9811    1492.3422    12367.128 
   95350    320.08403    266.04917   -3034.9722   -2558.8714    542.38695    12363.562 
   95400    317.92709    266.05732   -3035.2441   -2562.3516    592.68283    12360.251 
   95450    300.91775    265.47811   -3015.9371   -2568.3447    1250.9568    12357.194 
   95500    308.31897    265.83667   -3027.8889   -2569.2878    1043.3889     12354.66 
   95550    300.59756      265.523   -3017.4332   -2570.3171    1228.5114    12352.637 
   95600    313.70739    266.05851   -3035.2838   -2568.6678    749.62214    12351.137 
   95650    303.11361    265.64327   -3021.4425   -2570.5839    1190.6678        12350 
   95700    292.73764    265.26012   -3008.6707   -2573.2456     1598.782    12349.419 
   95750    313.36176    266.10644   -3036.8814   -2570.7795    839.72747    12349.555 
   95800    312.71114    266.09686    -3036.562   -2571.4279    762.30466    12350.111 
   95850    304.09761    265.86623   -3028.8743   -2576.5522    1048.7618    12350.989 
   95900    300.29008    265.70484   -3023.4947   -2576.8359    1180.1152    12352.345 
   95950    305.30821    265.97339   -3032.4465   -2578.3236    888.40962    12354.247 
   96000    298.39248    265.70118   -3023.3726   -2579.5364    990.47677    12356.587 
   96050    298.05017    265.78542   -3026.1808   -2582.8538    853.63032    12359.375 
   96100    303.06887     265.8632   -3028.7734   -2577.9814    692.87495    12362.538 
   96150    306.32958    266.04808   -3034.9359   -2579.2939    516.86942    12365.996 
   96200    300.27898    265.89198   -3029.7328   -2583.0905    635.44227    12369.678 
   96250    304.48283    266.07003   -3035.6678   -2582.7726    497.19315    12373.595 
   96300     295.3431    265.71167   -3023.7224   -2584.4219    742.74995    12377.737 
   96350    296.09512     265.8258   -3027.5268   -2587.1078    639.28904     12382.19 
   96400    293.97333    265.61541   -3020.5136   -2583.2506    701.41151    12386.938 
   96450      305.429    266.04689   -3034.8964   -2580.5939    362.33721     12391.97 
   96500    298.66125    265.86036   -3028.6787   -2584.4427     472.1376    12397.164 
   96550    310.34969    266.31696   -3043.8986   -2582.2769     12.56781    12402.497 
   96600    295.14603    265.76511   -3025.5036   -2586.4962    488.67437    12407.832 
   96650    296.93013    265.88915   -3029.6384   -2587.9773    324.38612    12413.312 
   96700    299.40721     266.0545   -3035.1501   -2589.8045    35.826831    12418.907 
   96750    310.62859    266.43547    -3047.849   -2585.8125   -480.00471    12424.426 
   96800    307.50001    266.33602    -3044.534   -2587.1511   -421.85775    12429.627 
   96850    298.55791    265.92919    -3030.973   -2586.8907   -132.15483    12434.516 
   96900    299.32736    266.01326   -3033.7755   -2588.5487   -188.36636    12439.214 
   96950    289.86917    265.67238   -3022.4128   -2591.2543    115.05702     12443.76 
   97000    295.22531    265.93179   -3031.0595   -2591.9343   -38.421257    12448.248 
   97050    287.52447    265.54345   -3018.1152   -2590.4443    235.77537    12452.667 
   97100    298.97722    265.94185   -3031.3952   -2586.6892   -139.16394    12457.095 
   97150    294.22813    265.72658   -3024.2194   -2586.5773     7.574759    12461.396 
   97200    290.35451    265.65971   -3021.9902   -2590.1099    76.672285    12465.612 
   97250    296.11761    265.85333   -3028.4444   -2587.9919   -260.57254    12469.784 
   97300    296.14552    265.87806   -3029.2687   -2588.7746   -406.70372    12473.734 
   97350     290.4957    265.65023   -3021.6742   -2589.5838   -272.64594    12477.377 
   97400    292.18665    265.67143   -3022.3811   -2587.7756   -349.11762    12480.763 
   97450    283.68947    265.41884   -3013.9613   -2591.9948   -131.04823    12483.884 
   97500    284.98946    265.54271   -3018.0905   -2594.1903   -227.97476    12486.816 
   97550    285.87012     265.5011   -3016.7034   -2591.4932   -248.70701    12489.535 
   97600    284.20771    265.29325   -3009.7751   -2587.0377   -62.944015    12492.028 
   97650    281.57434    265.21801   -3007.2671   -2588.4466    80.278718    12494.401 
   97700    286.29271    265.42487   -3014.1625   -2588.3238   -162.67798    12496.722 
   97750    285.37941    265.33109   -3011.0363   -2586.5561   -238.09651    12498.868 
   97800    290.25653    265.48257   -3016.0856    -2584.351   -432.38983    12500.774 
   97850    287.57734    265.32093   -3010.6976   -2582.9481   -279.09831    12502.361 
   97900    286.95297    265.26958   -3008.9861   -2582.1653   -154.40261    12503.686 
   97950    286.91998    265.19072   -3006.3573   -2579.5855   -74.932703    12504.828 
   98000    283.87275    264.98193   -2999.3977   -2577.1585     109.0471    12505.833 
   98050    279.79717    264.85957   -2995.3191   -2579.1421    254.30105    12506.817 
   98100     285.6714    265.04098   -3001.3658   -2576.4513    9.2194621    12507.815 
   98150     281.4135    264.80778   -2993.5927   -2575.0115    117.38453    12508.742 
   98200    295.78162    265.30732   -3010.2441   -2570.2914   -362.14532    12509.591 
   98250    285.32058    264.95979   -2998.6597   -2574.2669   -32.819866    12510.204 
   98300    299.55053    265.38885   -3012.9616   -2567.4029   -367.50883    12510.636 
   98350    297.67228    265.17743   -3005.9142   -2563.1493   -255.07037    12510.778 
   98400    299.03671    265.30632   -3010.2105   -2565.4161   -326.77022    12510.654 
   98450    296.64086     265.1416     -3004.72   -2563.4892   -236.88412    12510.245 
   98500    302.76342    265.26178    -3008.726   -2558.3884   -280.89405    12509.576 
   98550    279.29367    264.36036   -2978.6787   -2563.2506    661.59257    12508.711 
   98600    298.76198    265.12612   -3004.2039   -2559.8181    126.42172     12508.02 
   98650    307.47158    265.32064   -3010.6879   -2553.3472   -109.62361    12507.324 
   98700    307.90915    265.31505   -3010.5017   -2552.5102   -156.21912    12506.461 
   98750    308.37773     265.2828   -3009.4267   -2550.7382   -171.94964    12505.391 
   98800    297.39385    264.83966   -2994.6554   -2552.3046    305.37104    12504.132 
   98850    295.54535    264.78374   -2992.7913     -2553.19    559.35998    12502.909 
   98900    291.27808    264.67059   -2989.0198   -2555.7657    769.18821      12501.9 
   98950    305.34956      265.099   -3003.3001   -2549.1157    316.18573    12501.189 
   99000    310.89955    265.29268   -3009.7559   -2547.3164    112.83961    12500.558 
   99050     307.3057    260.02322   -3000.7739   -2543.6799    338.27527    12499.889 
   99100    310.13218    260.14837   -3004.9457   -2543.6476    327.87495    12499.264 
   99150    295.71028    259.57886   -2985.9619   -2546.1153    876.61542     12498.73 
   99200    292.74347    259.43901   -2981.3003   -2545.8666     955.2876    12498.541 
   99250     308.5136    260.07014    -3002.338   -2543.4474    411.03455    12498.744 
   99300    308.47079    260.12012   -3004.0041   -2545.1772    478.64822    12499.091 
   99350    304.94094    259.86897   -2995.6323   -2542.0558    668.64186    12499.592 
   99400    306.23567    259.87377   -2995.7922   -2540.2899    549.44641    12500.329 
   99450      298.482    259.64943   -2988.3145   -2544.3451    702.92132    12501.293 
   99500    307.90479    259.97129    -2999.043    -2541.058    398.18683    12502.511 
   99550     307.5833    259.98563    -2999.521   -2542.0142    300.33256    12503.849 
   99600    322.93455    260.52203   -3017.4008   -2537.0602   -229.25285    12505.208 
   99650    307.98283    259.89713   -2996.5708   -2538.4697    388.87255     12506.39 
   99700    300.21129      259.561   -2985.3667   -2538.8252     796.8654    12507.669 
   99750    305.97287    259.71642   -2990.5472   -2535.4357    622.04964    12509.264 
   99800    303.24949    259.62012   -2987.3375   -2536.2768    608.36398    12511.117 
   99850    300.92702    259.60312   -2986.7706   -2539.1645    551.18591    12513.195 
   99900    302.27737    259.59811   -2986.6037   -2536.9891     510.5772    12515.469 
   99950    304.53492    259.73092   -2991.0307   -2538.0581     337.2842    12517.935 
  100000     305.7169    259.85446   -2995.1487    -2540.418     169.4796    12520.483 
Loop time of 26.8326 on 1 procs for 100000 steps with 500 atoms

Performance: 321.996 ns/day, 0.075 hours/ns, 3726.811 timesteps/s
99.8% CPU use with 1 MPI tasks x 1 OpenMP threads

MPI task timing breakdown:
Section |  min time  |  avg time  |  max time  |%varavg| %total
---------------------------------------------------------------
Pair    | 21.958     | 21.958     | 21.958     |   0.0 | 81.83
Bond    | 0.0067825  | 0.0067825  | 0.0067825  |   0.0 |  0.03
Neigh   | 0.53288    | 0.53288    | 0.53288    |   0.0 |  1.99
Comm    | 0.78451    | 0.78451    | 0.78451    |   0.0 |  2.92
Output  | 0.0183     | 0.0183     | 0.0183     |   0.0 |  0.07
Modify  | 2.7448     | 2.7448     | 2.7448     |   0.0 | 10.23
Other   |            | 0.7876     |            |       |  2.94

Nlocal:    500 ave 500 max 500 min
Histogram: 1 0 0 0 0 0 0 0 0 0
Nghost:    1546 ave 1546 max 1546 min
Histogram: 1 0 0 0 0 0 0 0 0 0
Neighs:    14264 ave 14264 max 14264 min
Histogram: 1 0 0 0 0 0 0 0 0 0

Total # of neighbors = 14264
Ave neighs/atom = 28.528
Ave special neighs/atom = 0
Neighbor list builds = 648
Dangerous builds = 0

write_data      ${walker}/final_restart_file
write_data      10/final_restart_file

quit
