LAMMPS (19 May 2017)
Processor partition = 10
  using 1 OpenMP thread(s) per MPI task
# gREM variables
variable        lambda world 1000 1005 1010 1015 1020 1025 1030 1035 1040 1045 1050 1055 1060 1065 1070 1075
variable        walker world 0 1 2 3 4 5 6 7 8 9 10 11 12 13 14 15
variable        replica world 2 3 4 6 13 0 1 7 11 14 9 8 5 10 12 15

variable        T0 equal 300.0
variable        press equal 0.0

units           real
atom_style      full
pair_style      lj/cut 5.0

# LJ particles
read_data       ${walker}/restart_file
read_data       10/restart_file
  orthogonal box = (1.00691 1.00691 1.00691) to (23.9931 23.9931 23.9931)
  1 by 1 by 1 MPI processor grid
  reading atoms ...
  500 atoms
  reading velocities ...
  500 velocities
  0 = max # of 1-2 neighbors
  0 = max # of 1-3 neighbors
  0 = max # of 1-4 neighbors
  1 = max # of special neighbors

#dump            dump all xyz 1000 ${walker}/dump.xyz

fix             fxnpt all npt temp ${T0} ${T0} 1000.0 iso ${press} ${press} 10000.0
fix             fxnpt all npt temp 300 ${T0} 1000.0 iso ${press} ${press} 10000.0
fix             fxnpt all npt temp 300 300 1000.0 iso ${press} ${press} 10000.0
fix             fxnpt all npt temp 300 300 1000.0 iso 0 ${press} 10000.0
fix             fxnpt all npt temp 300 300 1000.0 iso 0 0 10000.0
fix             fxgREM all grem ${lambda} -.03 -30000 fxnpt
fix             fxgREM all grem 1050 -.03 -30000 fxnpt
thermo_modify   press fxgREM_press

thermo          50
thermo_style    custom step temp f_fxgREM pe etotal press vol
WARNING: New thermo_style command, previous thermo_modify settings will be lost (../output.cpp:705)
timestep        1.0

temper/grem     100000 1000 ${lambda} fxgREM fxnpt 10294 98392 ${walker}
temper/grem     100000 1000 1050 fxgREM fxnpt 10294 98392 ${walker}
temper/grem     100000 1000 1050 fxgREM fxnpt 10294 98392 10
Neighbor list info ...
  update every 1 steps, delay 10 steps, check yes
  max neighbors/atom: 2000, page size: 100000
  master list distance cutoff = 7
  ghost atom cutoff = 7
  binsize = 3.5, bins = 7 7 7
  1 neighbor lists, perpetual/occasional/extra = 1 0 0
  (1) pair lj/cut, perpetual
      attributes: half, newton on
      pair build: half/bin/newton
      stencil: half/bin/3d/newton
      bin: standard
Per MPI rank memory allocation (min/avg/max) = 5.726 | 5.726 | 5.726 Mbytes
Step Temp f_fxgREM PotEng TotEng Press Volume 
       0    297.77697    243.53764   -3117.9214   -2675.0007    343.13496    12145.092 
      50    307.10786    243.86014   -3128.6712   -2671.8715    97.268057    12145.074 
     100    292.60997    243.34334   -3111.4447   -2676.2096    522.79088    12144.992 
     150     294.6128    243.47085   -3115.6952    -2677.481    437.32813    12144.985 
     200    296.69007    243.54899   -3118.2997   -2676.9957    411.26843    12145.053 
     250    282.44947    243.03152   -3101.0506   -2680.9284    865.98208    12145.232 
     300    299.60056    243.58883   -3119.6277   -2673.9946    380.75007    12145.639 
     350      287.535    243.23712    -3107.904   -2680.2175    705.92075    12146.149 
     400    293.65656    243.48703   -3116.2344   -2679.4426     420.1164    12146.841 
     450     304.8933    243.86976    -3128.992   -2675.4863    3.0991524    12147.584 
     500    291.29776    243.38014   -3112.6715   -2679.3882    424.60086     12148.22 
     550    303.85129    243.75821   -3125.2736   -2673.3179     79.04684    12148.862 
     600    290.75986    243.24617   -3108.2058   -2675.7225    501.17722     12149.43 
     650    279.86945    242.86102   -3095.3675   -2679.0829    965.22548    12150.092 
     700    270.56565    242.36111   -3078.7037   -2676.2578    1440.7912     12151.14 
     750    287.11352    242.92707   -3097.5688   -2670.5092    957.31446    12152.761 
     800    295.78824    243.29142   -3109.7138   -2669.7513     609.5908    12154.756 
     850     294.8135      243.328   -3110.9332   -2672.4204    554.66509    12156.919 
     900    288.49558    242.98458   -3099.4859   -2670.3706    701.02015    12159.241 
     950    294.90704    243.22019   -3107.3397   -2668.6878    495.49307    12161.743 
    1000    286.40011    242.95402   -3098.4675    -2672.469    787.40835    12164.377 
    1050    291.96857    248.14918   -3104.9727   -2670.6915    589.02631    12167.257 
    1100    305.70932    248.51122   -3117.0406   -2662.3211    197.47373    12170.296 
    1150     299.6114    248.18564    -3106.188   -2660.5388    391.92272     12173.33 
    1200    306.76326    248.37191    -3112.397   -2656.1099    124.30531    12176.378 
    1250    306.97197    248.28841   -3109.6136    -2653.016     116.0154    12179.349 
    1300    303.34323    248.17006   -3105.6685   -2654.4684    305.90669    12182.237 
    1350    294.14423    247.75161   -3091.7205   -2654.2032    673.32423    12185.146 
    1400    298.48685    247.93037   -3097.6791   -2653.7025    560.99954    12188.227 
    1450      293.548     247.6503   -3088.3432   -2651.7128    760.92329    12191.479 
    1500    297.07442    247.78762   -3092.9207    -2651.045    634.73527    12194.959 
    1550    284.86954    247.33668   -3077.8894   -2654.1675    982.52822    12198.669 
    1600    303.87255    247.95416   -3098.4721   -2646.4847    315.53365    12202.701 
    1650    304.30483    247.91102   -3097.0339   -2644.4036    187.16945    12206.796 
    1700    305.55946    247.82949   -3094.3163   -2639.8198    260.02481    12210.838 
    1750    293.43875    247.35607   -3078.5355   -2642.0676    795.37288    12214.884 
    1800    302.77829    247.63641   -3087.8802   -2637.5204    497.76227    12219.141 
    1850    296.34536    247.22556   -3074.1854   -2633.3941    682.41611    12223.566 
    1900    301.45064     247.3956   -3079.8534   -2631.4684    584.76799     12228.18 
    1950    314.42349    247.79308   -3093.1027   -2625.4216    142.19707    12232.942 
    2000    298.38388    247.17349   -3072.4496   -2628.6262    611.52047    12237.682 
    2050    310.75596    247.62443    -3087.481   -2625.2551    249.10642    12242.535 
    2100    303.36347    247.31472   -3077.1572    -2625.927    463.41322    12247.416 
    2150    317.66966    247.81988   -3093.9959   -2621.4863    74.475588    12252.346 
    2200    313.43237    247.65364   -3088.4547   -2622.2478      216.645      12257.2 
    2250    313.46912    247.60742   -3086.9141   -2620.6526    144.77847    12261.989 
    2300    293.91127      246.912   -3063.7335   -2626.5627    618.07172    12266.737 
    2350    290.46047    246.72541   -3057.5136   -2625.4756    713.70613    12271.646 
    2400     287.7831    246.61796    -3053.932   -2625.8764    751.35356    12276.806 
    2450    293.64976    246.78855   -3059.6184   -2622.8366    475.90914    12282.221 
    2500    310.25171    247.36807   -3078.9357   -2617.4598   -118.92723     12287.72 
    2550    301.72639    246.98314   -3066.1045   -2617.3094    216.20913    12293.039 
    2600    307.24051    247.17636   -3072.5452   -2615.5483    52.361317    12298.292 
    2650    313.02445    247.36078   -3078.6928   -2613.0927    -211.0666    12303.413 
    2700    304.58039    247.11232   -3070.4107   -2617.3705   -71.981501    12308.273 
    2750    299.43434     246.9122   -3063.7399    -2618.354    43.585136    12312.941 
    2800    299.58192    246.87956   -3062.6521   -2617.0467     15.50467    12317.465 
    2850    296.23592    246.72319   -3057.4398   -2616.8113    67.459598    12321.855 
    2900    300.52008    246.87027   -3062.3424   -2615.3415   -29.246454    12326.107 
    2950    296.52646    246.76528   -3058.8425   -2617.7819    112.82526    12330.194 
    3000    297.54647     246.8443   -3061.4768   -2618.8989   -5.8116135    12334.179 
    3050      302.542    242.04563   -3068.1878   -2618.1795   -268.53861    12337.994 
    3100    300.93434    242.01379   -3067.1265   -2619.5094   -277.98324    12341.506 
    3150    307.39758     242.1625   -3072.0835   -2614.8528   -417.13063    12344.676 
    3200     306.8527    242.21005   -3073.6683   -2617.2481   -414.73541     12347.44 
    3250    301.96034    241.96859   -3065.6196   -2616.4765   -324.32908    12349.815 
    3300    297.51954    241.81883   -3060.6276   -2618.0898   -265.98397    12351.838 
    3350    304.86216    242.05376   -3068.4587   -2614.9993   -471.52063    12353.513 
    3400    302.76159    241.98896   -3066.2987   -2615.9638    -449.9969    12354.768 
    3450     310.0184    242.24216   -3074.7385   -2613.6097   -667.39434    12355.585 
    3500    304.07932    242.00217   -3066.7389   -2614.4439   -401.32433    12355.879 
    3550    292.79995     241.6538   -3055.1268    -2619.609   -80.524592    12355.781 
    3600    308.12083    242.08396   -3069.4654    -2611.159   -634.09541    12355.424 
    3650    294.87188    241.66894   -3055.6314   -2617.0319   -214.07546    12354.586 
    3700    288.59693    241.42917   -3047.6389   -2618.3728    70.486573    12353.442 
    3750    311.70019    242.21259    -3073.753   -2610.1225     -680.034    12352.121 
    3800    298.00091    241.80021    -3060.007   -2616.7532   -229.49622    12350.305 
    3850    296.64727    241.83609   -3061.2028   -2619.9625   -124.27544    12348.138 
    3900    304.60437     242.0763   -3069.2098   -2616.1339   -359.09625    12345.715 
    3950    305.11784     242.1599   -3071.9967   -2618.1571   -290.29366    12342.919 
    4000    303.87974    242.04723   -3068.2409   -2616.2428   -127.47898    12339.778 
    4050    294.94214    246.71815   -3057.2718   -2618.5677    138.57853      12336.4 
    4100    311.87626    247.31997   -3077.3324   -2613.4401   -447.22485    12332.875 
    4150     304.8101    246.97895   -3065.9651   -2612.5831   -184.94695    12328.983 
    4200    286.40194    246.37154   -3045.7179   -2619.7167    448.64876    12324.839 
    4250    295.34669    246.76127   -3058.7089   -2619.4031    117.66411    12320.736 
    4300    302.27912    247.01899   -3067.2997   -2617.6824   -121.68425    12316.531 
    4350    290.45019    246.57506    -3052.502   -2620.4793    297.59435    12312.146 
    4400    298.05664    246.85128   -3061.7092   -2618.3725    150.85764    12307.732 
    4450    308.59521    247.30688    -3076.896    -2617.884    -58.13692    12303.217 
    4500    303.73039    247.11042   -3070.3473   -2618.5714    154.09175    12298.546 
    4550    293.51503    246.71423   -3057.1409   -2620.5596    457.30879    12293.793 
    4600    305.01153    247.23686   -3074.5622   -2620.8806    41.151611    12289.084 
    4650    303.43882    247.08357   -3069.4522     -2618.11    129.06621    12284.277 
    4700    308.14716    247.29211   -3076.4036   -2618.0581    28.817082    12279.347 
    4750    306.84959     247.2301   -3074.3366   -2617.9211     182.8135    12274.295 
    4800    307.28788    247.28447   -3076.1489   -2619.0815     294.9517    12269.174 
    4850    298.57766    246.95992   -3065.3308   -2621.2192    568.08019    12264.069 
    4900    303.43558    247.19768   -3073.2561   -2621.9187    425.97779    12259.083 
    4950    300.75709    247.04061   -3068.0204    -2620.667    655.73527      12254.2 
    5000    304.57085    247.24919   -3074.9731    -2621.947    592.84096    12249.493 
    5050    311.76838    242.42497   -3080.8324   -2617.1006    469.20879    12244.936 
    5100    317.14921     242.6103     -3087.01   -2615.2745    348.17904    12240.454 
    5150    300.28883    242.06016   -3068.6719    -2622.015    800.65708     12236.01 
    5200    307.74104    242.39939   -3079.9797   -2622.2382    603.58358    12231.781 
    5250    297.05809    242.08361   -3069.4537   -2627.6023    965.22274    12227.753 
    5300    308.25985    242.51538   -3083.8459   -2625.3327    682.32498    12224.008 
    5350    301.57898    242.26625   -3075.5417   -2626.9658    901.08594    12220.495 
    5400    313.16046    242.76609    -3092.203   -2626.4005    468.47483    12217.262 
    5450     317.0497    242.85763   -3095.2544    -2623.667    351.70919     12214.12 
    5500    321.96987    243.05207   -3101.7358     -2622.83     264.1723    12210.982 
    5550    300.79329     242.4052   -3080.1734   -2632.7662     855.3629     12207.85 
    5600    311.83589     242.8136   -3093.7867   -2629.9544    470.01653    12204.935 
    5650    304.47332    242.54069   -3084.6897   -2631.8087    712.93952    12202.153 
    5700    296.14428    242.34151   -3078.0505   -2637.5583     1032.186     12199.58 
    5750    292.65313    242.38849   -3079.6162   -2644.3168    1018.0432    12197.385 
    5800    305.29562    242.96907   -3098.9689   -2644.8648    419.00588    12195.541 
    5850    306.33926    242.93402   -3097.8006   -2642.1442    391.05888    12193.795 
    5900    288.93218    242.44985   -3081.6618   -2651.8971    969.57819    12192.111 
    5950    286.49052    242.41382   -3080.4605   -2654.3276    1072.3427    12190.748 
    6000    307.31953    243.23773   -3107.9243   -2650.8098     297.1692    12189.754 
    6050    307.95041    238.31347    -3110.449   -2652.3961    213.22931    12188.785 
    6100    288.68417    237.70033    -3090.011   -2660.6152    808.82979    12187.778 
    6150    292.48919    237.97652   -3099.2173   -2664.1618    576.72101    12186.983 
    6200    287.02261    237.81846   -3093.9488   -2667.0245    643.43049    12186.343 
    6250    284.66797      237.784   -3092.7999   -2669.3779    754.53667    12185.871 
    6300    294.00343    238.15097   -3105.0324   -2667.7245    422.34507    12185.606 
    6350    298.68343    238.35397   -3111.7989   -2667.5299    107.42282    12185.394 
    6400    312.38188    238.86836   -3128.9454    -2664.301   -331.61662    12185.044 
    6450    295.33656    238.23539   -3107.8463   -2668.5556     247.2824     12184.39 
    6500    294.04188    238.20816   -3106.9388   -2669.5738    273.66621    12183.647 
    6550    302.19712    238.52547   -3117.5157   -2668.0204   -85.756091    12182.857 
    6600     296.9227    238.28575   -3109.5251   -2667.8751    37.086258    12181.868 
    6650    287.76002    237.96502    -3098.834   -2670.8127    390.41082    12180.715 
    6700    288.37043    238.08905   -3102.9682    -2674.039    409.08678    12179.559 
    6750    278.86634    237.70529   -3090.1763   -2675.3837    630.18497    12178.478 
    6800    290.84036    238.16049   -3105.3496   -2672.7466    193.23107    12177.531 
    6850    295.25372    238.35824   -3111.9415   -2672.7739    67.613995    12176.538 
    6900    294.36048    238.29178   -3109.7261   -2671.8872    147.22393    12175.395 
    6950    286.41986    238.08823   -3102.9408    -2676.913    376.71741    12174.152 
    7000    287.23614    238.13306   -3104.4352   -2677.1932    441.29065    12172.927 
    7050    292.96803    238.35011   -3111.6703   -2675.9025    293.05111    12171.748 
    7100    289.54915    238.26106   -3108.7021   -2678.0197    330.44761    12170.555 
    7150     289.3222    238.22822   -3107.6072   -2677.2624    356.53325    12169.351 
    7200    297.14854    238.55016   -3118.3386   -2676.3527    74.168989    12168.152 
    7250    307.83396     238.8912   -3129.7068   -2671.8271    -232.3854    12166.794 
    7300     293.2236    238.39038   -3113.0125   -2676.8646      369.745    12165.167 
    7350    278.62509    237.80284    -3093.428   -2678.9943    973.68545    12163.573 
    7400    286.65629    238.08455   -3102.8182   -2676.4387    685.35815    12162.277 
    7450    290.93628     238.1961   -3106.5365   -2673.7909    501.71678    12161.178 
    7500     295.4035    238.28494   -3109.4981   -2670.1078    351.97666    12160.187 
    7550    305.48292    238.66696   -3122.2318   -2667.8492    41.940516    12159.186 
    7600    291.52735    238.25241   -3108.4137   -2674.7889    550.11959    12158.066 
    7650    287.71449    238.14944   -3104.9812   -2677.0278    723.49905    12157.037 
    7700    298.66132    238.50098   -3116.6995   -2672.4634    375.94937    12156.185 
    7750    305.71244    238.69819   -3123.2731    -2668.549    168.95385    12155.372 
    7800    297.12882    238.38089   -3112.6965   -2670.7399    559.10917    12154.476 
    7850    287.61727     238.0587   -3101.9568   -2674.1479    851.85909    12153.694 
    7900     310.3901      238.919   -3130.6332   -2668.9515    77.415869     12153.13 
    7950    288.45975     238.2057   -3106.8567   -2677.7947    780.56816    12152.506 
    8000    292.92023    238.40477   -3113.4925   -2677.7958    797.50508    12152.057 
    8050    299.44425    233.56803   -3118.9343   -2673.5336    618.72549    12151.864 
    8100    313.18522    233.90681   -3130.2269   -2664.3877    203.57978     12151.79 
    8150    299.29525    233.38928   -3112.9758   -2667.7968    538.25689    12151.661 
    8200    294.44756    233.27777    -3109.259   -2671.2906    615.56817      12151.6 
    8250     292.5001    233.18705    -3106.235   -2671.1633    634.83742    12151.676 
    8300     302.7745    233.51903    -3117.301   -2666.9468    296.25642    12151.875 
    8350    301.03083    233.41377   -3113.7924   -2666.0318       418.36    12152.054 
    8400    303.88099    233.53934    -3117.978    -2665.978    332.87598    12152.244 
    8450    315.70269    233.84244   -3128.0814   -2658.4976   -13.020831    12152.408 
    8500    300.14871    233.23987   -3107.9957   -2661.5473    612.38278    12152.406 
    8550    287.85051    232.81904    -3093.968   -2665.8122    1067.3019    12152.526 
    8600    313.93571    233.82203   -3127.4011   -2660.4455    195.79016    12152.958 
    8650    310.61723    233.63939    -3121.313   -2659.2934     260.8999    12153.347 
    8700    292.53325    232.95456   -3098.4854   -2663.3643    843.37788    12153.686 
    8750    306.75734    233.39372   -3113.1241   -2656.8458    457.01896    12154.236 
    8800    298.82203     233.1187   -3103.9566   -2659.4814    729.30533    12154.876 
    8850    293.79974    232.86639   -3095.5465   -2658.5416    989.51865    12155.701 
    8900    300.08058    233.08655   -3102.8848   -2656.5377    725.26323    12156.843 
    8950    301.82573      233.192   -3106.3999    -2657.457    572.09193    12158.177 
    9000    290.62902    232.78511    -3092.837   -2660.5483    915.57277    12159.652 
    9050    301.37547    228.04628   -3101.5426   -2653.2694     565.8223    12161.382 
    9100    317.83228    228.50327   -3116.7758   -2644.0243    36.236836    12163.207 
    9150    311.92868    228.28834   -3109.6112    -2645.641    310.27417    12164.857 
    9200    291.63913    227.63968   -3087.9893   -2654.1982    885.39693    12166.499 
    9250    306.26305    228.19939   -3106.6462   -2651.1032    457.37271    12168.348 
    9300    296.17014    227.93572   -3097.8572   -2657.3266    734.29762    12170.274 
    9350    305.75506    228.17955    -3105.985   -2651.1975    455.28359    12172.364 
    9400    317.22996    228.48556   -3116.1854   -2644.3298    141.00799    12174.484 
    9450    313.46375    228.36859   -3112.2865   -2646.0329     228.3092      12176.5 
    9500    311.16087     228.2898     -3109.66   -2646.8318    294.86925    12178.412 
    9550     300.3548    227.87992   -3095.9973   -2649.2423    651.22224     12180.29 
    9600    308.90485    228.08503   -3102.8343   -2643.3618    452.24022     12182.28 
    9650    307.94079    227.98154   -3099.3845   -2641.3459    516.24366    12184.301 
    9700    291.26715    227.53148   -3084.3828    -2651.145    1028.2401    12186.415 
    9750    304.63211    227.94588   -3098.1961   -2645.0789    651.30093    12188.843 
    9800    313.71501    228.14378   -3104.7925   -2638.1652    408.61398    12191.424 
    9850    314.15829    228.02405   -3100.8017    -2633.515    508.14543    12194.033 
    9900    316.35541    228.13238   -3104.4126   -2633.8579    432.70599    12196.694 
    9950     317.2292    228.10516   -3103.5054    -2631.651    341.25293    12199.363 
   10000    315.97715     228.1326   -3104.4201    -2634.428    239.38857    12202.004 
   10050    306.01877    232.67942   -3089.3139   -2634.1342    598.35094    12204.591 
   10100    305.94208    232.63285   -3087.7616    -2632.696    684.66668    12207.275 
   10150    309.71688    232.62712   -3087.5706   -2626.8902    599.35278    12210.144 
   10200    323.32071    233.11024   -3103.6747   -2622.7597    123.55044    12213.114 
   10250    325.51074    233.17489   -3105.8296   -2621.6571     51.76355    12215.969 
   10300     307.4579    232.46762   -3082.2539   -2624.9335     696.2229     12218.69 
   10350    325.67575     232.9942   -3099.8066   -2615.3886    226.16778    12221.521 
   10400    321.75574    232.75484   -3091.8279   -2613.2406    317.25499    12224.312 
   10450    300.64533    232.03347   -3067.7823   -2620.5951    939.28368    12227.104 
   10500    302.33442    232.10871   -3070.2904   -2620.5909    865.42904    12230.179 
   10550    302.08355    232.06898    -3068.966   -2619.6397    841.79335    12233.564 
   10600    320.34168     232.6827   -3089.4233   -2612.9393    295.60892    12237.189 
   10650     322.7095    232.73234   -3091.0781   -2611.0722    229.10449    12240.814 
   10700    315.75992    232.46287   -3082.0957   -2612.4268    530.44658    12244.372 
   10750    316.38437    232.47931   -3082.6438    -2612.046    473.05598    12248.016 
   10800    329.87535     232.8821   -3096.0701   -2605.4055   -65.666316    12251.714 
   10850    326.30166    232.75763   -3091.9208   -2606.5719    16.742889    12255.194 
   10900    306.65003    232.07118   -3069.0393   -2612.9206    594.03863    12258.501 
   10950    313.19357    232.20942   -3073.6474   -2607.7957    323.09597    12261.903 
   11000     323.1459     232.4937   -3083.1234   -2602.4683    53.322315    12265.289 
   11050    308.08482    232.04018    -3068.006   -2609.7532    594.41612    12268.542 
   11100    316.24356    232.34737   -3078.2457   -2607.8573    383.24431    12271.892 
   11150    314.75971    232.22876   -3074.2918   -2606.1106    370.95089    12275.278 
   11200    320.50667    232.40607   -3080.2022   -2603.4728    180.01294    12278.653 
   11250    317.75934    232.30135   -3076.7116   -2604.0687    262.99872    12281.941 
   11300     312.8878    232.13899   -3071.2997   -2605.9028    394.30346    12285.167 
   11350     306.7182    231.87913   -3062.6376   -2606.4175    459.67533    12288.416 
   11400    314.36927    232.17325   -3072.4415    -2604.841    140.49886    12291.693 
   11450    316.18202    232.20557   -3073.5189   -2603.2221    52.773137    12294.872 
   11500    324.04486    232.52638   -3084.2127   -2602.2206   -231.35416    12297.855 
   11550    304.55244    231.86729   -3062.2429   -2609.2442    322.36119    12300.562 
   11600      306.253    232.12029   -3070.6763   -2615.1481    244.73991    12303.211 
   11650    310.00866    232.22605   -3074.2015   -2613.0871    85.038093      12305.8 
   11700    302.89948     232.0152   -3067.1734   -2616.6333    259.72017    12308.259 
   11750    306.61716    232.22753   -3074.2508   -2618.1811     57.79301    12310.659 
   11800    327.73452    232.90134   -3096.7112   -2609.2309   -750.66797    12312.859 
   11850    320.01817     232.6913   -3089.7099   -2613.7071   -630.70219    12314.484 
   11900    306.62915    232.27103   -3075.7009   -2619.6132   -201.28343    12315.554 
   11950    288.26442    231.62508   -3054.1692   -2625.3978     273.4974    12316.318 
   12000    298.46479    232.04366   -3068.1221   -2624.1784   -177.84462    12316.982 
   12050     307.5292    232.30468   -3076.8225   -2619.3961   -514.55552    12317.357 
   12100    312.04992    232.56691   -3085.5638   -2621.4132   -699.20406     12317.24 
   12150    300.84425    232.31968   -3077.3228   -2629.8398    -357.8031    12316.545 
   12200    293.72909    232.20026   -3073.3422   -2636.4424   -171.72288    12315.429 
   12250    312.72551    232.92184   -3097.3945   -2632.2391   -752.86231    12313.961 
   12300    297.34909    232.36491   -3078.8304   -2636.5461   -277.30438     12311.93 
   12350    299.59981    232.52107   -3084.0358   -2638.4038   -425.91287    12309.479 
   12400    308.96569    232.84935   -3094.9782   -2635.4151   -773.28147    12306.557 
   12450    313.53513    233.10702   -3103.5674   -2637.2077   -940.87999    12302.986 
   12500    301.78018    232.78242   -3092.7474   -2643.8723   -609.10211    12298.686 
   12550    307.83319    233.04726   -3101.5754   -2643.6969   -816.40383    12293.774 
   12600    294.86876    232.62355   -3087.4516   -2648.8566   -507.93396    12288.224 
   12650    296.85543    232.70827   -3090.2755   -2648.7256   -565.48634     12282.12 
   12700    288.03485    232.61964   -3087.3212   -2658.8912   -321.50619     12275.48 
   12750    288.21573    232.65014   -3088.3381   -2659.6391   -249.91083    12268.424 
   12800    314.31362    233.52316   -3117.4386   -2649.9209   -937.46078    12260.943 
   12850    308.77203     233.3915   -3113.0499   -2653.7749   -718.77519    12252.741 
   12900    291.67567    232.77646   -3092.5485    -2658.703   -86.526985    12243.895 
   12950    276.97769    232.39584   -3079.8614   -2667.8781    475.92349    12234.733 
   13000    275.50633    232.40567   -3080.1889   -2670.3941    634.82075    12225.573 
   13050    310.31722    233.59628   -3119.8761   -2658.3027   -328.12174    12216.444 
   13100     306.8073    233.39806   -3113.2686    -2656.916   -114.14331    12206.958 
   13150    308.42223    233.51502   -3117.1672   -2658.4125   -94.007774    12197.123 
   13200    296.98603    233.25318   -3108.4393   -2666.6951    257.04098     12187.01 
   13250    301.01808    233.36789    -3112.263   -2664.5214    235.13312    12176.753 
   13300    311.29796    233.76787   -3125.5956   -2662.5635    62.621387    12166.344 
   13350    298.82109    233.36105   -3112.0348   -2667.5611    506.00402    12155.751 
   13400    308.07935    233.78748   -3126.2493   -2668.0046    225.26424    12145.118 
   13450    297.29552    233.32034    -3110.678   -2668.4735    606.78628    12134.391 
   13500    309.04265    233.81632   -3127.2108   -2667.5332    298.67535    12123.687 
   13550    312.73624    233.95283   -3131.7609   -2666.5895    341.28944    12112.898 
   13600    296.16676     233.4029     -3113.43   -2672.9044    992.98312    12102.061 
   13650     313.2456    233.98586   -3132.8618   -2666.9327    605.32756    12091.438 
   13700    313.22146    234.12402   -3137.4673   -2671.5741    679.69655    12080.905 
   13750    309.42985    233.94944   -3131.6479   -2671.3944    863.21783    12070.481 
   13800    303.02188    233.76734   -3125.5781    -2674.856    1078.0104    12060.275 
   13850    293.66449    233.46504   -3115.5013   -2678.6976    1517.2561    12050.406 
   13900    313.07757    234.08743   -3136.2475   -2670.5683       1021.7    12041.041 
   13950     327.5594    234.66776   -3155.5921   -2668.3723    631.96644    12031.976 
   14000    299.89507    233.73044    -3124.348   -2678.2768    1551.8408    12023.076 
   14050    312.84848    229.15195   -3138.3985   -2673.0601     1285.219    12014.668 
   14100    317.15396    229.26713   -3142.2377   -2670.4952    1315.9863    12006.708 
   14150    302.83696    228.85888   -3128.6292   -2678.1822    1879.2678    11999.214 
   14200    309.96068    229.22406   -3140.8019   -2679.7588    1633.8837    11992.413 
   14250    323.85777    229.66381   -3155.4604   -2673.7465    1178.6198    11986.204 
   14300    316.04306    229.45352   -3148.4506   -2678.3605    1438.7552    11980.382 
   14350    300.10652     228.8987   -3129.9567    -2683.571    2027.3771    11975.092 
   14400    312.27187    229.33338   -3144.4459   -2679.9651    1628.9587    11970.575 
   14450    321.22175    229.69881   -3156.6268   -2678.8338    1318.2995    11966.675 
   14500    302.75929     229.2204     -3140.68   -2690.3485    1846.0921    11963.282 
   14550     320.8252    229.79976   -3159.9918   -2682.7887     1340.886    11960.569 
   14600    314.14164    229.60574   -3153.5248   -2686.2629    1543.9308    11958.365 
   14650    309.89726    229.55753   -3151.9178   -2690.9691    1649.0029     11956.72 
   14700    305.66357    229.48252   -3149.4173   -2694.7659    1773.3905    11955.735 
   14750    296.30992    229.13661   -3137.8871   -2697.1486    2019.4291    11955.477 
   14800    306.80638    229.53828   -3151.2761   -2694.9249    1542.4326    11956.015 
   14850    311.12628     229.7726   -3159.0865   -2696.3098    1313.0212    11957.175 
   14900    312.61361    229.83605   -3161.2018   -2696.2128    1291.6163    11958.833 
   14950    300.44708     229.4482   -3148.2733    -2701.381    1622.7404    11960.979 
   15000    300.24382    229.50668   -3150.2225   -2703.6326    1631.2892    11963.759 
   15050    302.67544    224.63539    -3154.513   -2704.3062    1489.4364    11967.193 
   15100    321.41243     225.2773     -3175.91   -2697.8334    736.14835    11971.185 
   15150    302.63144    224.63738   -3154.5793    -2704.438    1135.9597    11975.433 
   15200    293.38665    224.38567    -3146.189   -2709.7986     1336.973     11980.05 
   15250     287.0497    224.23586   -3141.1953   -2714.2306    1467.4243    11985.199 
   15300    296.29014    224.51168   -3150.3894   -2709.6803    1155.3262    11990.926 
   15350    309.84869    224.97767   -3165.9222   -2705.0457    627.79291    11997.073 
   15400    297.88561    224.62932   -3154.3108   -2711.2285    873.49758    12003.408 
   15450    302.93421    224.75356   -3158.4521   -2707.8604     656.1049    12009.999 
   15500       302.17    224.76884   -3158.9613   -2709.5063    542.26207    12016.784 
   15550    301.70413    224.74558   -3158.1861   -2709.4241    538.13364    12023.682 
   15600    296.43342    224.61218   -3153.7395   -2712.8172    559.99557    12030.684 
   15650    299.15778    224.74823   -3158.2743   -2713.2998    319.67995    12037.795 
   15700    310.32279     225.0313   -3167.7101   -2706.1284   -45.832782     12044.88 
   15750    273.42668    223.85883   -3128.6275   -2721.9261    930.10543    12051.855 
   15800    287.89461     224.3813   -3146.0433   -2717.8219     452.3398    12059.078 
   15850    291.26679     224.4593   -3148.6432    -2715.406      243.298    12066.407 
   15900    309.24259    225.06298   -3168.7659    -2708.791   -386.75729    12073.666 
   15950    292.77358    224.54218    -3151.406   -2715.9275     31.84488    12080.599 
   16000    272.20932    223.90634   -3130.2112   -2725.3205    560.39013    12087.392 
   16050    304.10761    225.06778    -3168.926   -2716.5889   -556.88674    12094.226 
   16100    290.99517    224.58202   -3152.7338   -2719.9006   -278.55737    12100.679 
   16150    295.68784    224.70289    -3156.763   -2716.9497   -461.94335    12106.776 
   16200    291.92978       224.54   -3151.3335   -2717.1101   -474.78115    12112.473 
   16250     295.3764    224.56178   -3152.0594   -2712.7094   -544.21316    12117.721 
   16300    283.10995    224.18077    -3139.359   -2718.2544   -145.42175    12122.536 
   16350    282.58433    224.21333   -3140.4442   -2720.1215   -223.30173    12127.069 
   16400    289.08493    224.34714   -3144.9048   -2714.9129   -486.51542    12131.282 
   16450    292.11259    224.46585   -3148.8615   -2714.3662   -657.53041    12135.049 
   16500     279.0046    224.01361   -3133.7871   -2718.7889   -280.09633    12138.308 
   16550    289.32366    224.34475   -3144.8249   -2714.4778   -626.39856    12141.188 
   16600    304.40188    224.80056   -3160.0187    -2707.244   -1074.3817    12143.522 
   16650    291.66289    224.38381    -3146.127   -2712.3006   -717.06145    12145.101 
   16700    284.30164    224.09159   -3136.3863   -2713.5091   -497.30518    12146.063 
   16750    278.42228    223.83937   -3127.9789   -2713.8468   -277.86843    12146.553 
   16800    289.65684    224.36737   -3145.5789   -2714.7363   -645.36219    12146.648 
   16850    284.80443    224.12828   -3137.6095   -2713.9845    -398.1637    12146.213 
   16900    297.48944    224.47614   -3149.2048   -2706.7118   -686.40081    12145.307 
   16950    302.64566    224.61528   -3153.8428   -2703.6803   -767.59119    12143.811 
   17000    287.82036    224.15921   -3138.6404   -2710.5294   -225.80168     12141.69 
   17050    298.74629    219.47516   -3149.1722   -2704.8097    -521.1138    12139.154 
   17100    295.93074    219.38893   -3146.2976    -2706.123   -466.60455    12136.118 
   17150    299.64523    219.50405   -3150.1349   -2704.4353    -425.1665    12132.542 
   17200    303.09421    219.48833   -3149.6109   -2698.7812   -386.33476     12128.47 
   17250     305.9926    219.60513   -3153.5042   -2698.3634   -464.58037    12123.902 
   17300    300.37008    219.46863   -3148.9545   -2702.1768    -289.3286    12118.812 
   17350    303.88915    219.60359   -3153.4531    -2701.441   -308.57421    12113.268 
   17400    302.51265     219.4411   -3148.0365   -2698.0719   -104.18786    12107.278 
   17450    296.71205    219.19787   -3139.9289   -2698.5922    139.66195    12100.939 
   17500    289.76767    219.05488   -3135.1627   -2704.1552    451.96042    12094.389 
   17550    301.64429    219.40176   -3146.7252   -2698.0522    311.71887    12087.768 
   17600    307.17653      219.455   -3148.5001   -2691.5983    258.59137    12081.043 
   17650    306.38793     219.3345   -3144.4833   -2688.7544    442.78767    12074.164 
   17700    306.53959    219.31672   -3143.8907   -2687.9362    652.61547    12067.213 
   17750    306.24021    219.30873   -3143.6243   -2688.1152    709.18783    12060.296 
   17800    313.04809    219.52232   -3150.7441   -2685.1088    482.17153     12053.44 
   17850    309.18622    219.37396   -3145.7987   -2685.9076    639.38681    12046.568 
   17900    313.77764    219.57012   -3152.3372   -2685.6167    650.21391    12039.726 
   17950    326.33055    219.98575   -3166.1917   -2680.7997    413.05956    12032.916 
   18000    318.96811    219.74695   -3158.2316   -2683.7907     722.7242    12026.032 
   18050    319.07423      214.767   -3158.9001   -2684.3013    845.90658     12019.19 
   18100    300.37901    214.22128   -3140.7093   -2693.9183     1401.314    12012.511 
   18150    301.99652    214.24385   -3141.4616   -2692.2647    1434.0637    12006.226 
   18200    309.73676    214.47839   -3149.2796   -2688.5696    1244.1836    12000.404 
   18250    320.73657    214.87085   -3162.3618   -2685.2905    969.94785    11994.932 
   18300     321.8733    214.87334   -3162.4448   -2683.6826     977.5558    11989.682 
   18350    320.05064    214.82087   -3160.6956   -2684.6445     1012.418    11984.619 
   18400    313.78457    214.66852   -3155.6174   -2688.8866     1202.204    11979.795 
   18450    305.54365     214.3612   -3145.3733   -2690.9003    1481.1312    11975.296 
   18500    314.55822    214.55758   -3151.9194   -2684.0379    1269.5344    11971.254 
   18550    326.78123    215.05905    -3168.635   -2682.5726    894.50583    11967.581 
   18600    320.16516     214.9081   -3163.6032   -2687.3818    1170.1665      11964.1 
   18650    305.93701    214.38298   -3146.0994   -2691.0413    1637.8236    11960.956 
   18700    312.75879     214.6978   -3156.5934   -2691.3884    1360.5724     11958.34 
   18750    315.66638    214.79297   -3159.7655   -2690.2357    1234.6944    11956.176 
   18800    323.16141    215.08777   -3169.5923   -2688.9142    1036.0804     11954.37 
   18850    319.16465    214.99751   -3166.5838   -2691.8506    1148.8814    11952.837 
   18900    322.78324    215.21174   -3173.7248   -2693.6092    1014.5122    11951.611 
   18950    315.93086    215.06596   -3168.8655   -2698.9423    1134.3947    11950.656 
   19000     324.2615    215.45585   -3181.8616   -2699.5472    846.10068    11949.981 
   19050    302.33934    214.76808   -3158.9361   -2709.2292    1519.6251    11949.551 
   19100    316.09838    215.27907    -3175.969   -2705.7966    1068.5587    11949.595 
   19150    322.96828    215.61442   -3187.1474   -2706.7566    707.87444    11949.944 
   19200    305.70671    215.00136    -3166.712   -2711.9964     1231.478    11950.453 
   19250    305.65896    215.17501   -3172.5003   -2717.8558    1112.6725    11951.315 
   19300    307.62365    215.32116   -3177.3721   -2719.8052    921.21132    11952.519 
   19350    306.26992     215.2919   -3176.3966   -2720.8433      778.663    11953.972 
   19400    309.20031    215.57216   -3185.7385   -2725.8265    409.93382    11955.584 
   19450    305.02269    215.50138   -3183.3794   -2729.6813    459.46908    11957.195 
   19500    290.65587    215.02009   -3167.3365   -2735.0079    920.18045    11958.832 
   19550    303.64089     215.4258   -3180.8599   -2729.2171    482.94549    11960.675 
   19600     311.6495    215.76961   -3192.3205   -2728.7654    147.26224    11962.555 
   19650    301.12279    215.42754   -3180.9181   -2733.0207    486.72949    11964.312 
   19700    293.33698    215.13533   -3171.1776   -2734.8611    706.23003    11966.075 
   19750    293.65248    215.24293   -3174.7644   -2737.9786    618.01281    11967.966 
   19800    290.57286    215.10273    -3170.091   -2737.8859    662.07367    11969.981 
   19850    280.40508    214.77167   -3159.0556   -2741.9743    930.86513    11972.114 
   19900    289.05544     215.0813   -3169.3766   -2739.4286    615.23378    11974.478 
   19950    313.05531    215.94404   -3198.1347   -2732.4887   -257.37107    11976.927 
   20000    303.64027    215.59422   -3186.4741   -2734.8322    37.296274    11979.055 
   20050    272.57758    219.63227    -3154.409   -2748.9705    1014.2297    11981.017 
   20100    291.76417    220.22427   -3174.1422   -2740.1651    497.18679    11983.236 
   20150    303.03323    220.59097   -3186.3657   -2735.6267    57.535985    11985.538 
   20200    294.40421    220.25032   -3175.0105   -2737.1066    278.65007    11987.679 
   20250    288.17155    220.01938   -3167.3126   -2738.6793    444.77853    11989.759 
   20300    301.90331    220.56316   -3185.4388   -2736.3805   -30.322153     11991.82 
   20350    281.58168    219.94356   -3164.7854    -2745.954    482.91535    11993.713 
   20400    286.83427    220.08067   -3169.3556   -2742.7114    341.77002    11995.614 
   20450    293.81843    220.27607   -3175.8692   -2738.8365    154.64212    11997.491 
   20500    299.04808    220.44474   -3181.4915   -2736.6801    9.4397621    11999.235 
   20550    284.35036    219.86574   -3162.1914   -2739.2418    511.37513    12000.799 
   20600    283.15932    219.88138   -3162.7127   -2741.5347    537.25305    12002.395 
   20650    295.20441    220.29958   -3176.6527   -2737.5585    91.754827    12004.041 
   20700    295.34033    220.32286   -3177.4288   -2738.1324     58.86409    12005.549 
   20750    296.92794    220.40062   -3180.0207   -2738.3629   -33.125493    12006.876 
   20800    295.15863    220.39512   -3179.8373   -2740.8113   -36.873169    12007.957 
   20850    276.22632    219.63063   -3154.3543   -2743.4885    644.21037    12008.835 
   20900    290.06808    220.06187    -3168.729   -2737.2747    338.96299    12009.775 
   20950    301.55866    220.39403   -3179.8009   -2731.2553   -15.154221     12010.68 
   21000    296.01947    220.23497   -3174.4989   -2734.1924    151.03136     12011.37 
   21050    285.08771    219.84446    -3161.482   -2737.4356    468.45331    12011.928 
   21100    309.84067    220.50916   -3183.6387   -2722.7741   -188.46529    12012.456 
   21150     298.4837    220.18056   -3172.6853   -2728.7134    186.56248    12012.715 
   21200    276.04888     219.5034   -3150.1133   -2739.5116    926.30986    12012.861 
   21250    284.50988    219.75103   -3158.3675   -2735.1807    750.52926    12013.233 
   21300    295.34805    220.12415   -3170.8049   -2731.4971    389.10602    12013.776 
   21350      316.359    220.67177   -3189.0589   -2718.4989   -241.37996    12014.258 
   21400    304.92139    220.14916   -3171.6386   -2718.0912    97.445769    12014.422 
   21450    301.79672    219.99199   -3166.3995   -2717.4998    245.93331     12014.39 
   21500    293.49604    219.68156   -3156.0519   -2719.4988     540.2552    12014.263 
   21550     293.8645    219.79282   -3159.7607   -2722.6596     466.1344    12014.156 
   21600    300.14708    219.98144    -3166.048   -2719.6019    338.51255    12014.062 
   21650    302.26463    220.06514    -3168.838   -2719.2423    295.48536    12013.912 
   21700    299.32659    219.93634   -3164.5446    -2719.319    411.24138    12013.692 
   21750    298.29707     219.8822     -3162.74   -2719.0457    527.03946    12013.451 
   21800     292.0218    219.64468   -3154.8227   -2720.4624    803.16768    12013.269 
   21850     297.6487    219.80327   -3160.1089    -2717.379    685.23799    12013.252 
   21900    301.70544    219.89354   -3163.1181   -2714.3541    501.45738    12013.354 
   21950    295.17331     219.6029   -3153.4301   -2714.3821    631.30064    12013.502 
   22000    307.33449    219.98194   -3166.0648    -2708.928    370.20389    12013.718 
   22050    297.36593    219.66975   -3155.6582   -2713.3489    729.99874    12013.929 
   22100    300.56128     219.6624   -3155.4135   -2708.3514    690.24372    12014.274 
   22150     301.3928    219.66012   -3155.3373   -2707.0383    648.02585    12014.756 
   22200    303.03367     219.7285   -3157.6165   -2706.8769     658.3869    12015.351 
   22250    304.62262     219.7084   -3156.9467   -2703.8436    680.19568    12016.051 
   22300    302.79183    219.62547   -3154.1825   -2703.8026    719.61093    12016.869 
   22350     305.2476    219.63567   -3154.5224   -2700.4897    696.41571    12017.836 
   22400    303.47139     219.6311   -3154.3701   -2702.9794    736.26794    12018.951 
   22450    303.68434      219.637   -3154.5668   -2702.8593    705.73107    12020.226 
   22500    301.87982    219.57782   -3152.5939   -2703.5705    796.48817    12021.647 
   22550    316.18905    219.96314   -3165.4379   -2695.1307    463.38181    12023.231 
   22600    301.40185    219.46611   -3148.8704   -2700.5579    868.95396    12024.881 
   22650    304.18383     219.4939   -3149.7965   -2697.3461    774.54195    12026.729 
   22700    298.46552    219.36282   -3145.4275   -2701.4826    948.68862    12028.793 
   22750    299.76693    219.39454   -3146.4847   -2700.6042    978.24175    12031.141 
   22800    315.08075     219.7171   -3157.2367    -2688.578    504.85961    12033.767 
   22850    317.67083    219.79551   -3159.8503    -2687.339     371.7534    12036.449 
   22900    315.13661    219.77246   -3159.0821   -2690.3403    347.13046    12039.115 
   22950    297.26071    219.15654   -3138.5512   -2696.3985    795.20394     12041.78 
   23000    304.15704    219.32222   -3144.0739   -2691.6633    687.85685    12044.612 
   23050    296.49524    224.12945   -3137.6483   -2696.6341    922.77602    12047.638 
   23100    306.42024    224.51196   -3150.3985   -2694.6216    552.80348    12050.922 
   23150     302.8723    224.40907   -3146.9689   -2696.4693    562.51462    12054.339 
   23200     299.2317    224.22915   -3140.9718   -2695.8873    685.71365    12057.877 
   23250     309.2479    224.62276   -3154.0919   -2694.1091    306.91557    12061.568 
   23300    316.77218    224.81177   -3160.3924   -2689.2178    44.623087    12065.237 
   23350    308.91188    224.48489   -3149.4962   -2690.0132    289.52439    12068.758 
   23400    290.00423    223.85587    -3128.529   -2697.1697    819.32323    12072.262 
   23450    310.50955     224.5127   -3150.4234    -2688.564    215.34354    12075.927 
   23500    295.20293    223.96787   -3132.2624   -2693.1704    554.52321    12079.588 
   23550    307.23819    224.42901   -3147.6335     -2690.64    126.61621    12083.302 
   23600    298.28561    224.06829   -3135.6098   -2691.9326    405.35022    12086.942 
   23650    301.25476    224.15266   -3138.4219   -2690.3283    400.17361    12090.587 
   23700    292.65366    223.93022   -3131.0074   -2695.7073    572.25559    12094.277 
   23750    295.03729    223.97379   -3132.4597   -2693.6141    398.32462    12098.075 
   23800    297.38781    223.96329   -3132.1098   -2689.7679    261.56989    12101.909 
   23850    290.37575    223.72312    -3124.104    -2692.192    411.84955    12105.711 
   23900    299.05919    223.99206   -3133.0685   -2688.2406    73.786998    12109.542 
   23950    313.19862     224.4802   -3149.3399   -2683.4807   -344.90946    12113.229 
   24000    301.59778    224.10334   -3136.7779   -2688.1741    136.26564    12116.562 
   24050    293.94552    223.85191   -3128.3971   -2691.1754     411.5146    12119.767 
   24100    304.03727    224.20543   -3140.1811   -2687.9487     69.78139    12122.971 
   24150     302.9049     224.1923   -3139.7433   -2689.1952   -17.379337    12126.042 
   24200    304.32184    224.20015   -3140.0051   -2687.3495   -143.38859    12128.898 
   24250    303.77701    224.09927   -3136.6424   -2684.7971   -121.83402    12131.477 
   24300    316.64687    224.47705   -3149.2351   -2678.2469   -492.69981    12133.761 
   24350    297.30444    223.73088   -3124.3628    -2682.145    138.85191    12135.634 
   24400    307.48206    224.09066   -3136.3555   -2678.9992   -164.55396    12137.313 
   24450    308.10281    224.06823   -3135.6076    -2677.328   -247.14131    12138.718 
   24500    301.63339    223.92057   -3130.6856   -2682.0288   -4.9357458    12139.779 
   24550     298.2404    223.76871   -3125.6237   -2682.0137    241.59453    12140.599 
   24600     305.4993    223.94682   -3131.5606   -2677.1535    76.559027    12141.298 
   24650    309.50225    224.07086   -3135.6954   -2675.3343   -127.93441     12141.82 
   24700    306.03664    223.92639   -3130.8797   -2675.6734   -14.651413    12142.058 
   24750    301.56203    223.81555   -3127.1849   -2678.6342    119.45674    12142.063 
   24800    306.43683    223.98354   -3132.7846    -2676.983    -115.3599    12141.891 
   24850    310.30325       224.07   -3135.6668   -2674.1143   -193.61813    12141.426 
   24900    299.40739    223.63734   -3121.2448    -2675.899    295.66778    12140.646 
   24950    302.20635    223.62835   -3120.9451    -2671.436    295.37946    12139.755 
   25000    307.96502     223.9136   -3130.4532   -2672.3786    85.835841    12138.765 
   25050    292.41902    228.38334   -3112.7778   -2677.8267    526.92378    12137.638 
   25100    305.83214    228.81581   -3127.1937   -2672.2916    192.65324    12136.525 
   25150    303.37221    228.64774   -3121.5915   -2670.3483    359.72261    12135.321 
   25200    311.49167    228.84673   -3128.2243   -2664.9041    176.07944    12134.064 
   25250    310.16295    228.88133   -3129.3775   -2668.0336    283.34823    12132.676 
   25300    297.58721    228.47557   -3115.8522   -2673.2138    646.98876     12131.21 
   25350    309.40914     228.8153   -3127.1767   -2666.9541    207.66438    12129.829 
   25400    305.52742    228.62412    -3120.804   -2666.3551    303.43965    12128.357 
   25450    304.27233    228.60122   -3120.0406   -2667.4586    438.22233    12126.811 
   25500    298.31126    228.32679    -3110.893   -2667.1776    717.05073    12125.303 
   25550    315.58121    228.95907    -3131.969   -2662.5659     241.1183    12123.901 
   25600    310.64305     228.7021   -3123.4034   -2661.3454    476.77378    12122.434 
   25650     316.6991    228.98257   -3132.7523   -2661.6864    339.71915    12120.953 
   25700    313.61785    228.78743   -3126.2477   -2659.7649    519.27918    12119.445 
   25750    300.72047    228.26458   -3108.8194   -2661.5205    953.40006    12117.999 
   25800    314.13218    228.69515   -3123.1717   -2655.9239    601.06585    12116.781 
   25850    307.04326    228.50039   -3116.6795   -2659.9759    920.84839    12115.686 
   25900    297.20626     228.2101   -3107.0033   -2664.9315    1228.8855    12114.864 
   25950    311.78908    228.59813   -3119.9378   -2656.1751    796.95059    12114.456 
   26000    323.04452    228.87375   -3129.1248   -2648.6206    450.40165    12114.251 
   26050    320.06147     223.7458     -3124.86   -2648.7928    565.35871    12114.071 
   26100    316.66359    223.70189   -3123.3964   -2652.3833    669.54475     12113.95 
   26150    323.60596    223.85065   -3128.3549   -2647.0156    466.23883    12113.943 
   26200    340.49756    224.33511   -3144.5038   -2638.0395    -8.632741    12113.919 
   26250    314.81348    223.55685   -3118.5618   -2650.3006    722.86215    12113.713 
   26300    314.94684    223.61028   -3120.3425    -2651.883    751.18903    12113.604 
   26350    314.52337    223.53322    -3117.774   -2649.9443    758.17815    12113.678 
   26400    314.17621    223.58391   -3119.4637   -2652.1504    670.05711    12113.901 
   26450    309.61223    223.42577   -3114.1923   -2653.6676    778.61015    12114.261 
   26500    319.54863    223.81519    -3127.173   -2651.8686    397.38984    12114.789 
   26550    317.30966    223.81511   -3127.1703   -2655.1963    404.21575    12115.317 
   26600    324.55305    224.02054   -3134.0179   -2651.2699    303.40503    12115.812 
   26650    307.76723    223.45812   -3115.2707   -2657.4902    911.90444    12116.281 
   26700    316.44134    223.78046   -3126.0152   -2655.3327    642.09109     12116.96 
   26750     315.5057    223.68123   -3122.7076   -2653.4168    670.28162    12117.772 
   26800    303.37646    223.39442   -3113.1473   -2661.8978    1030.7973    12118.706 
   26850    307.92995    223.57694   -3119.2312   -2661.2087     813.1955     12119.95 
   26900    324.76402    224.12934   -3137.6447   -2654.5829    179.58718    12121.389 
   26950    324.14478    224.10701   -3136.9003   -2654.7595      106.142    12122.712 
   27000      299.118    223.31537   -3110.5124    -2665.597    766.80235    12123.901 
   27050    313.35622    218.76417   -3125.4724   -2659.3788    326.43156    12125.198 
   27100    314.81136    218.88475   -3129.4918   -2661.2338    132.09013    12126.449 
   27150     312.3477    218.84185   -3128.0617   -2663.4682    222.05149    12127.519 
   27200    305.12857    218.72804    -3124.268   -2670.4123    418.42123    12128.475 
   27250    310.54806    218.95588   -3131.8627    -2669.946    172.48012    12129.393 
   27300    305.88734    218.77394   -3125.7981   -2670.8139    310.72728    12130.185 
   27350    305.75639     218.8453   -3128.1766   -2673.3871    308.13273    12130.894 
   27400    309.43033    219.11929   -3137.3096   -2677.0554    83.490086    12131.519 
   27450    311.99825     219.1845   -3139.4833   -2675.4096    16.299256    12131.939 
   27500    292.26444    218.67381   -3122.4602    -2687.739    415.67909    12132.153 
   27550    303.29379    219.10963   -3136.9878   -2685.8612   -133.95437    12132.291 
   27600    315.80729    219.54743   -3151.5809   -2681.8415   -620.01265    12132.108 
   27650    302.25756    219.26364   -3142.1214   -2692.5362   -248.74538    12131.387 
   27700    291.49609    218.95572   -3131.8573   -2698.2789    48.401967    12130.284 
   27750     305.3426    219.41106   -3147.0353   -2692.8614   -342.27136    12128.915 
   27800    304.30523    219.42742   -3147.5808   -2694.9498   -331.11831     12127.12 
   27850    298.40063    219.20649   -3140.2165   -2696.3681   -103.40373      12124.9 
   27900    292.93494    219.06723   -3135.5744   -2699.8559    88.572651    12122.383 
   27950    304.27927    219.38673   -3146.2244   -2693.6321   -184.11947    12119.627 
   28000    300.52195    219.28774   -3142.9248   -2695.9212   -75.855963    12116.535 
   28050    304.99265    214.48293   -3149.4311   -2695.7776   -256.13915    12113.114 
   28100      302.776    214.44426   -3148.1419   -2697.7855   -199.20993    12109.305 
   28150     303.4319     214.4608   -3148.6934   -2697.3615   -108.13032    12105.095 
   28200    301.22776    214.39233    -3146.411   -2698.3576   -27.866454    12100.548 
   28250    306.89623    214.63446   -3154.4821   -2697.9972   -141.90657    12095.676 
   28300    295.77818    214.33945   -3144.6483   -2704.7007    181.27068    12090.462 
   28350    297.11875    214.42829   -3147.6097   -2705.6681    74.715082    12085.039 
   28400    297.77593    214.42708   -3147.5692   -2704.6501    44.499629    12079.377 
   28450    307.24095    214.76607    -3158.869   -2701.8714    -210.1175    12073.433 
   28500     301.4481    214.66208   -3155.4026   -2707.0214    28.499841    12067.105 
   28550    295.30012    214.41434   -3147.1448   -2707.9083     307.9138    12060.515 
   28600    305.10233    214.70681   -3156.8937   -2703.0771    142.70835    12053.786 
   28650    299.72553    214.58932   -3152.9774   -2707.1584    420.06459    12046.877 
   28700    309.64873    214.84996   -3161.6653   -2701.0863    313.96477    12039.881 
   28750    306.80455    214.74318   -3158.1061   -2701.7576    471.98424     12032.78 
   28800    308.02291     214.9207   -3164.0233   -2705.8626    431.58147    12025.621 
   28850     308.1994    214.95898   -3165.2993    -2706.876    472.64386    12018.414 
   28900    294.75647    214.52998   -3150.9994   -2712.5715    856.64816    12011.207 
   28950    296.57047    214.68982   -3156.3275   -2715.2014    771.54056     12004.13 
   29000    304.46526    214.92113   -3164.0376   -2711.1686    674.42925    11997.183 
   29050    295.34471    214.68763   -3156.2543   -2716.9514    1035.7137     11990.34 
   29100     314.9127    215.27945   -3175.9816   -2707.5728    641.29362    11983.725 
   29150    326.35514    215.73199   -3191.0665    -2705.638    335.16157     11977.17 
   29200    299.77191    214.95238   -3165.0793   -2719.1913    1093.8252    11970.551 
   29250    300.49495    214.95816   -3165.2721   -2718.3086     1162.924    11964.189 
   29300    303.72255     215.0641   -3168.8034   -2717.0391    1084.8536    11958.175 
   29350    306.52241    215.18607   -3172.8689   -2716.9401    965.65032     11952.43 
   29400    303.62477     215.1569   -3171.8967   -2720.2779    1099.9316    11946.935 
   29450    302.25575    215.13408   -3171.1361   -2721.5536    1129.0259    11941.748 
   29500    313.03041    215.45401   -3181.8004   -2716.1914    769.28856    11936.843 
   29550    303.72562    215.23522   -3174.5073   -2722.7385    1093.5785    11932.107 
   29600     309.5034    215.44058   -3181.3525   -2720.9897    1066.9038    11927.642 
   29650    306.20602    215.31767   -3177.2557   -2721.7974    1214.7452    11923.478 
   29700    312.65907    215.53152   -3184.3838   -2719.3272    1042.6765    11919.654 
   29750    299.01431    215.13914   -3171.3045   -2726.5434      1449.27    11916.142 
   29800    289.05394    214.84606   -3161.5352   -2731.5894    1837.6582    11913.135 
   29850    310.76343    215.54757   -3184.9191   -2722.6821    1285.4371    11910.782 
   29900    315.05382    215.71324   -3190.4413   -2721.8227    1079.0608    11908.871 
   29950    314.11173    215.69525   -3189.8417   -2722.6243    1045.8074    11907.253 
   30000    293.20858    215.15927   -3171.9756     -2735.85    1578.0686    11905.949 
   30050    292.28882    215.12785   -3170.9284   -2736.1709    1540.2951    11905.187 
   30100     304.6305    215.50074    -3183.358   -2730.2432    1100.6497    11904.947 
   30150    307.92856    215.67215   -3189.0718   -2731.0514    945.36962    11905.049 
   30200    307.30832    215.69474   -3189.8248   -2732.7269     1019.141    11905.402 
   30250    301.87336    215.58775   -3186.2583   -2737.2445    1217.4797    11906.022 
   30300    278.54433    214.90123   -3163.3743   -2749.0607    1762.6662    11907.063 
   30350    311.86794     216.0004   -3200.0133   -2736.1334    685.31512     11908.69 
   30400    306.72353    215.71794   -3190.5979   -2734.3699    793.42741    11910.502 
   30450    308.33778    215.83832   -3194.6107   -2735.9816    644.22204    11912.447 
   30500    317.40976    216.16029    -3205.343     -2733.22    388.35002    11914.459 
   30550    287.62121    215.18829    -3172.943   -2745.1282    1367.4054    11916.504 
   30600    286.08913    215.21795   -3173.9318   -2748.3959    1369.5649    11918.971 
   30650    290.59891    215.39863   -3179.9544   -2747.7106    1023.6182    11921.919 
   30700    298.12141    215.72579   -3190.8596   -2747.4266    604.90794    11925.152 
   30750    295.75021     215.6828   -3189.4268   -2749.5208    607.19518     11928.49 
   30800    288.86765    215.39502   -3179.8341   -2750.1654    833.44553     11931.93 
   30850    287.80896    215.42587   -3180.8624   -2752.7683    833.74782    11935.564 
   30900    301.52235    215.80228   -3193.4092   -2744.9176    385.07061    11939.374 
   30950    295.26537    215.58447   -3186.1492   -2746.9643    489.12077    11943.188 
   31000    293.72693    215.60351   -3186.7835    -2749.887    432.89644    11947.021 
   31050    298.32565    210.79847   -3193.2822   -2749.5454     211.6797    11950.827 
   31100    291.37213    210.55533   -3185.1778   -2751.7838    389.50506    11954.529 
   31150    295.03707    210.73021    -3191.007   -2752.1617    227.31533    11958.164 
   31200    287.96366    210.42146   -3180.7153   -2752.3912     371.8453    11961.684 
   31250    286.92831    210.36705   -3178.9016   -2752.1175    343.24274    11965.156 
   31300    293.84238    210.57107   -3185.7023    -2748.634    141.35711    11968.558 
   31350     274.6449    210.10257   -3170.0857   -2761.5722    556.34502    11971.826 
   31400    293.01498    210.68426   -3189.4755   -2753.6379   0.49690093    11975.089 
   31450    288.49487    210.44866    -3181.622   -2752.5077    106.30989    11978.144 
   31500    278.87948     210.0373   -3167.9102   -2753.0981    404.11541    11981.005 
   31550    292.74449    210.53911    -3184.637   -2749.2018    -66.07052    11983.805 
   31600     298.9743    210.74102   -3191.3673   -2746.6657   -235.57566    11986.347 
   31650    298.88418     210.7849     -3192.83   -2748.2624   -239.60196    11988.511 
   31700     303.9208    210.86735   -3195.5785   -2743.5193   -393.08236    11990.277 
   31750    292.83105    210.52787   -3184.2623   -2748.6983   -73.209321    11991.615 
   31800    295.85647     210.6227   -3187.4233   -2747.3592   -146.35687    11992.615 
   31850    291.28867    210.47558   -3182.5193   -2749.2495   -23.921765    11993.292 
   31900    292.89058    210.46932   -3182.3106    -2746.658   0.17454323    11993.702 
   31950     296.7073    210.61068   -3187.0226   -2745.6929   -87.901192    11993.834 
   32000    283.95426    210.26063   -3175.3542   -2752.9938    188.16874    11993.682 
   32050    294.05994    210.52616   -3184.2053   -2746.8134   -103.87777    11993.325 
   32100    293.37685     210.4889   -3182.9633   -2746.5875   -63.070258    11992.673 
   32150    288.49646    210.35136   -3178.3788   -2749.2622    94.392307    11991.746 
   32200    292.53437    210.40096    -3180.032   -2744.9093    78.497755    11990.599 
   32250    296.59201    210.51784   -3183.9279   -2742.7697   -18.840972    11989.212 
   32300    297.41786    210.57329   -3185.7764   -2743.3898    32.030023    11987.551 
   32350    291.18832    210.35253   -3178.4175    -2745.297    305.48528     11985.66 
   32400    290.74711    210.36386   -3178.7952   -2746.3309    306.65799    11983.647 
   32450    295.48003    210.50938   -3183.6461   -2744.1419    205.85813    11981.511 
   32500    287.43739    210.16801    -3172.267   -2744.7257    547.02684     11979.24 
   32550    296.73239    210.42354   -3180.7848   -2739.4178    327.90415    11976.955 
   32600     288.0556    210.15634    -3171.878   -2743.4172    566.18638    11974.609 
   32650    303.35761    210.67488   -3189.1628   -2737.9413    219.56008    11972.248 
   32700    302.00271    210.66889   -3188.9632    -2739.757    305.84119    11969.757 
   32750    297.10843    210.47068   -3182.3561   -2740.4298    541.09545     11967.17 
   32800    312.33796    210.84055    -3194.685   -2730.1059    154.48387    11964.561 
   32850    303.15078    210.59774   -3186.5912   -2735.6774    470.64872     11961.77 
   32900    292.77721    210.32322   -3177.4405   -2741.9566    785.39005    11958.952 
   32950    309.00991    210.85424   -3195.1413   -2735.5125    291.58584    11956.249 
   33000    304.96198    210.64936   -3188.3121   -2734.7043     468.0168    11953.453 
   33050    271.13709    214.58814    -3152.938   -2749.6421    1441.4698    11950.693 
   33100    301.88645    215.49563   -3183.1877   -2734.1544    676.10116    11948.331 
   33150    300.51266    215.47819   -3182.6063   -2735.6165    711.50275    11946.129 
   33200    307.67407    215.74353   -3191.4511   -2733.8093    497.26023     11944.01 
   33250    289.58657    215.12219   -3170.7398   -2740.0017    999.71738     11941.93 
   33300    300.82063    215.49496   -3183.1654   -2735.7175    699.58838    11940.081 
   33350    313.47349    215.90258   -3196.7528   -2730.4847    361.68934    11938.349 
   33400    303.15078    215.57926   -3185.9752   -2735.0614    727.42254    11936.574 
   33450    297.66241    215.50663   -3183.5542   -2740.8039    908.75813    11934.912 
   33500    300.89796    215.64285   -3188.0949    -2740.532    835.72113    11933.454 
   33550    302.40677    215.65305   -3188.4349   -2738.6277    844.63771    11932.183 
   33600    294.51749     215.3267   -3177.5565   -2739.4841    1082.1906    11931.117 
   33650    299.20888     215.5058   -3183.5267   -2738.4762    915.07402    11930.328 
   33700    300.23415    215.51627   -3183.8755      -2737.3     835.7687    11929.781 
   33750    310.81871     215.8061   -3193.5366   -2731.2174     509.9228    11929.401 
   33800    298.42832    215.42329   -3180.7764   -2736.8869    914.82217    11929.077 
   33850    302.37555     215.5847   -3186.1565   -2736.3958    939.21375    11928.941 
   33900    296.67609    215.36237   -3178.7456   -2737.4624    1157.5809    11929.047 
   33950    289.01182    215.12411   -3170.8036   -2740.9205    1367.2551    11929.534 
   34000    303.12693    215.60563   -3186.8542   -2735.9759    948.92848    11930.467 
   34050    305.40142    210.62749    -3187.583   -2733.3215    819.38705    11931.668 
   34100     307.1817     210.6942   -3189.8068   -2732.8973    762.77413     11933.03 
   34150    292.34215    210.16288    -3172.096   -2737.2592    1173.2758    11934.557 
   34200    297.30291    210.39238   -3179.7461   -2737.5305    924.36069    11936.418 
   34250    304.72441    210.68643   -3189.5477   -2736.2933    678.98862    11938.511 
   34300    301.78813    210.45179   -3181.7264   -2732.8395    832.77791    11940.724 
   34350    314.88931    210.91755   -3197.2517   -2728.8777    355.64498    11943.069 
   34400    316.18464    210.97935   -3199.3117    -2729.011    139.69454    11945.356 
   34450    299.33398     210.4707   -3182.3568   -2737.1202    598.77754    11947.486 
   34500    290.80948    210.17667   -3172.5557   -2739.9986    939.89369     11949.66 
   34550    296.24539    210.38922   -3179.6407   -2738.9981    825.92473    11952.046 
   34600    284.89856    209.96952   -3165.6505   -2741.8855    1070.1655    11954.654 
   34650    304.73892     210.5429   -3184.7632   -2731.4871    455.42171    11957.526 
   34700     313.4412    210.79605   -3193.2017   -2726.9816    225.04789      11960.4 
   34750    301.26301    210.42448   -3180.8159     -2732.71    447.67451    11963.148 
   34800    304.55512     210.5816   -3186.0532   -2733.0505    178.67625    11965.835 
   34850    306.53215     210.6153   -3187.1765   -2731.2332    134.60791    11968.362 
   34900      303.751    210.43392   -3181.1305   -2729.3239    348.07476     11970.71 
   34950    290.32089      209.995   -3166.4999   -2734.6696    751.19543    11973.003 
   35000    291.57029    210.19974   -3173.3245   -2739.6358    572.09888    11975.403 
   35050    310.40052     205.7304   -3191.0134   -2729.3162    70.834317    11977.829 
   35100    299.82915    205.42645   -3180.8818   -2734.9086    312.26388    11980.066 
   35150    291.44332     205.2292   -3174.3067   -2740.8068     487.4861    11982.195 
   35200    310.89854    205.68861   -3189.6202   -2727.1822    42.811953    11984.274 
   35250    305.16841    205.57678   -3185.8928   -2731.9779    221.18505    11986.134 
   35300    306.59366    205.57439   -3185.8129   -2729.7781    206.49868     11987.83 
   35350    306.08832    205.49066   -3183.0221    -2727.739    204.30838    11989.355 
   35400    287.97618    205.04355   -3168.1184   -2739.7757    636.97188    11990.741 
   35450    301.95046    205.48037    -3182.679   -2733.5506    165.71435     11992.15 
   35500    313.92639    205.79458   -3193.1528   -2726.2111   -237.89048     11993.36 
   35550    304.48639    205.51867   -3183.9557   -2731.0553   -34.938964    11994.194 
   35600    295.50046    205.31339   -3177.1131   -2737.5786     244.8297     11994.73 
   35650    302.59009    205.57202   -3185.7341   -2735.6543   -7.2185014    11995.081 
   35700    310.45864    205.86419    -3195.473   -2733.6893   -359.29663    11995.131 
   35750     281.4914    205.03524   -3167.8413   -2749.1442    429.95738    11994.778 
   35800    304.27553     205.7313   -3191.0433   -2738.4565   -118.05009    11994.292 
   35850    299.96495     205.5812   -3186.0401    -2739.865   -13.516242    11993.504 
   35900    306.27872    205.86016   -3195.3388   -2739.7724   -161.51793    11992.393 
   35950     297.0229    205.52237   -3184.0789   -2742.2798     125.7627    11990.947 
   36000    303.26118    205.75484    -3191.828     -2740.75     22.59089    11989.234 
   36050    302.76048    200.82604   -3194.2015   -2743.8682    1.0664643    11987.254 
   36100    302.47437    200.70129   -3190.0429   -2740.1352    26.780666    11984.972 
   36150    291.48606    200.46698   -3182.2326   -2748.6692    252.51199    11982.411 
   36200    296.45515    200.59941    -3186.647   -2745.6925    125.39266    11979.665 
   36250    296.58349    200.56106   -3185.3688   -2744.2233    165.51162    11976.696 
   36300    307.16843    200.93283   -3197.7609   -2740.8711   -120.50752    11973.485 
   36350    305.25045     200.9065   -3196.8833   -2742.8463   -113.47798     11969.93 
   36400    310.38432    201.12744   -3204.2482    -2742.575    -166.1579    11965.995 
   36450    296.69605    200.74075   -3191.3582   -2750.0453    257.62167    11961.685 
   36500     295.5984    200.72817   -3190.9389   -2751.2587    288.15513    11957.172 
   36550     293.7077    200.76368   -3192.1228   -2755.2548    387.83197    11952.512 
   36600    308.03681    201.21609   -3207.2029   -2749.0215   -56.880979    11947.729 
   36650    315.80232    201.50365   -3216.7884   -2747.0564   -347.46265      11942.6 
   36700    295.86817      200.983   -3199.4333   -2759.3518    233.79186     11937.02 
   36750    290.30073    200.86792   -3195.5975   -2763.7971    403.80712    11931.228 
   36800    293.95581    201.11797   -3203.9324   -2766.6954    250.57121    11925.326 
   36850    288.19516    201.02349   -3200.7829   -2772.1144    370.44312    11919.272 
   36900    290.93217    201.13746    -3204.582   -2771.8425    272.94504    11913.086 
   36950    311.24375    201.76417   -3225.4724   -2762.5209   -216.48598    11906.715 
   37000    287.15285    201.06076   -3202.0253   -2774.9072    483.89421    11899.989 
   37050    290.65972    196.32009   -3210.6697   -2778.3354    423.09309    11893.141 
   37100    305.45079     196.8031   -3226.7701   -2772.4352     115.6311    11886.193 
   37150    297.01664    196.54344   -3218.1146   -2776.3249    486.47622    11879.026 
   37200    287.00457    196.28419   -3209.4731   -2782.5756    822.25286    11871.782 
   37250    295.30423    196.56778   -3218.9259   -2779.6833    632.46334    11864.631 
   37300      308.664    196.94892   -3231.6308   -2772.5165     397.6359    11857.496 
   37350     300.6938     196.7801   -3226.0033   -2778.7441    640.02934    11850.267 
   37400    298.11845    196.71172   -3223.7241   -2780.2955    666.15682    11843.022 
   37450    290.59725    196.60665   -3220.2215   -2787.9801    888.71886    11835.798 
   37500    297.73748    196.85569   -3228.5229    -2785.661    776.46906    11828.692 
   37550    305.72997    197.06316   -3235.4388   -2780.6887    588.40056    11821.663 
   37600    304.92217    197.00818   -3233.6059   -2780.0573    675.97127    11814.627 
   37650    298.34997     196.9292   -3230.9735   -2787.2005    891.15447    11807.618 
   37700    298.17436    196.92491   -3230.8304   -2787.3187    988.19166    11800.731 
   37750    295.64892    196.88933   -3229.6444    -2789.889    1103.2693    11794.038 
   37800    301.51825    197.09404    -3236.468   -2787.9824    1026.7337    11787.587 
   37850     289.9016    196.74213   -3224.7376   -2793.5309    1426.7942    11781.374 
   37900    287.19606    196.78163   -3226.0542   -2798.8718    1481.3814    11775.557 
   37950    307.24843    197.31369   -3243.7898   -2786.7811     1002.401    11770.168 
   38000    299.82951    197.14421   -3238.1404   -2792.1667    1270.7437    11765.002 
   38050    296.42152    197.03537   -3234.5122   -2793.6077    1380.6236    11760.161 
   38100    302.42737    197.26137   -3242.0456   -2792.2079     1213.861    11755.708 
   38150    305.67599    197.32415   -3244.1384   -2789.4685    1294.7276    11751.556 
   38200    299.32437     197.1957   -3239.8567   -2794.6344    1451.9476    11747.757 
   38250    293.10892    196.98366   -3232.7888   -2796.8115    1554.8604      11744.4 
   38300    290.73447    196.95831   -3231.9438   -2799.4983    1632.7407    11741.517 
   38350     298.8581    197.22312   -3240.7708    -2796.242    1421.4783    11739.157 
   38400    318.46577    197.77187   -3259.0622   -2785.3685    1011.6609    11737.196 
   38450    297.18558    197.13668   -3237.8894   -2795.8484     1702.097    11735.504 
   38500    294.89399    196.98781   -3232.9271   -2794.2946    1794.4391    11734.331 
   38550     297.1842    197.16186   -3238.7286   -2796.6896    1560.4722    11733.753 
   38600    316.35952    197.77325   -3259.1084   -2788.5476    1036.9841    11733.644 
   38650    292.76237    197.09414   -3236.4712   -2801.0093    1777.9535    11733.836 
   38700    295.60636    197.13124    -3237.708   -2798.0159    1799.8513    11734.605 
   38750    314.19732     197.6388   -3254.6267    -2787.282    1307.2469    11735.956 
   38800    303.93251    197.33616   -3244.5386    -2792.462    1507.7938    11737.709 
   38850    293.45695    197.09526   -3236.5086   -2800.0136    1670.6135    11739.931 
   38900    294.13978    197.20059   -3240.0195   -2802.5089    1567.4362    11742.696 
   38950    292.48564     197.0472   -3234.9067   -2799.8565    1670.0404    11745.983 
   39000     307.5718    197.50283   -3250.0943   -2792.6046    1249.9829    11749.792 
   39050    288.16628    197.00581    -3233.527   -2804.9015    1603.7299    11753.995 
   39100    295.21337    197.16556    -3238.852   -2799.7445    1286.6617    11758.692 
   39150    302.98738    197.49521   -3249.8405   -2799.1697    889.71265    11763.754 
   39200     292.5398    197.18369   -3239.4565   -2804.3257    1051.5777     11769.03 
   39250    274.03785    196.63585   -3221.1949   -2813.5843    1534.1194    11774.591 
   39300    291.71726    197.09445   -3236.4817   -2802.5743    1033.6351    11780.601 
   39350    295.35052     197.2611   -3242.0366   -2802.7251     762.3789    11786.904 
   39400    296.30103    197.25332   -3241.7772   -2801.0519    739.91537    11793.322 
   39450    293.96342    197.14091   -3238.0303    -2800.782    732.90581    11799.849 
   39500    310.79406    197.67631   -3255.8772   -2793.5945     177.6025    11806.435 
   39550    284.31885     196.8115   -3227.0499   -2804.1471    826.97042    11812.899 
   39600    283.58309    196.77292   -3225.7639   -2803.9555    852.70565    11819.487 
   39650    295.99249    197.12774   -3237.5913   -2797.3249    464.57341    11826.224 
   39700    283.62389    196.74356   -3224.7852   -2802.9162    690.72953    11832.954 
   39750     280.7821    196.60538   -3220.1792   -2802.5371    694.25529    11839.762 
   39800    285.08308    196.78317   -3226.1058   -2802.0663    461.10183    11846.643 
   39850    296.78359    197.11073   -3237.0245   -2795.5814    17.993736    11853.479 
   39900    291.52564    196.94669   -3231.5565   -2797.9342    49.157926    11860.076 
   39950    280.83705    196.62323   -3220.7743   -2803.0505     273.4064    11866.436 
   40000    281.01133    196.59452   -3219.8173   -2801.8343    260.54554    11872.652 
   40050    297.45589    196.96257   -3232.0857   -2789.6426   -134.26367    11878.705 
   40100    289.98633     196.8277   -3227.5901   -2796.2574   -36.994099    11884.436 
   40150    293.57534    196.81746   -3227.2488   -2790.5778   -9.8985509     11889.84 
   40200    283.99467    196.50639   -3216.8798   -2794.4593    271.48518    11894.988 
   40250    289.75098    196.65103    -3221.701   -2790.7184    114.13495    11899.964 
   40300    289.07934    196.65937   -3221.9791   -2791.9955    24.035051    11904.741 
   40350    306.36447    196.97272    -3232.424   -2776.7301   -429.76547    11909.229 
   40400    287.69302    196.39776   -3213.2586   -2785.3371    114.49075    11913.237 
   40450    295.07567    196.52126   -3217.3753   -2778.4726   -25.857573    11916.972 
   40500    293.99234    196.39184   -3213.0615   -2775.7701   -17.104628    11920.414 
   40550    279.04762    195.88696   -3196.2321   -2781.1699    404.36885    11923.573 
   40600    301.65931    196.48962   -3216.3206   -2767.6252   -222.27134    11926.591 
   40650      295.774    196.32914   -3210.9714     -2771.03    -116.8758    11929.241 
   40700    297.36548    196.23594   -3207.8647   -2765.5561   -38.494371    11931.527 
   40750    310.18685    196.58582   -3219.5273   -2758.1478   -292.64973    11933.477 
   40800    294.96895    196.09715   -3203.2384   -2764.4944    142.08053    11935.003 
   40850    294.63657    196.10913   -3203.6376   -2765.3881    145.10077    11936.274 
   40900    301.79434     196.2785   -3209.2834   -2760.3872   -22.308227    11937.333 
   40950    304.59631    196.29717   -3209.9057   -2756.8418   -12.792179    11938.085 
   41000    304.97857    196.30969   -3210.3229   -2756.6904   -50.625898    11938.519 
   41050    307.41741    201.34064   -3211.3547   -2754.0946   -153.91172    11938.619 
   41100    296.07139     200.9605   -3198.6835   -2758.2997    180.79937    11938.375 
   41150    321.10453    201.68453   -3222.8176    -2745.199   -457.06914    11937.863 
   41200    296.33015    200.90613   -3196.8708   -2756.1022    234.87794    11936.884 
   41250    298.53077     200.9861   -3199.5367   -2755.4948    274.65691    11935.683 
   41300    305.36691    201.13089   -3204.3631   -2750.1529    199.15102     11934.33 
   41350    299.20797    200.95657   -3198.5524   -2753.5032    420.34377      11932.8 
   41400    296.48549    200.84306   -3194.7687    -2753.769    553.90848    11931.183 
   41450    296.49782    200.84747   -3194.9158   -2753.8977     607.8788    11929.549 
   41500    297.72327    200.89625   -3196.5416   -2753.7008    604.83064    11927.934 
   41550    300.44718    200.92721   -3197.5737   -2750.6813    574.58682    11926.338 
   41600    308.63089    201.14608   -3204.8695   -2745.8044    362.59859    11924.728 
   41650    315.24913     201.3005   -3210.0167   -2741.1075    183.75326    11923.006 
   41700    296.81424    200.72735   -3190.9118   -2749.4231    613.38595     11921.12 
   41750    310.11826     201.1788   -3205.9601   -2744.6827    214.58418    11919.189 
   41800    304.31875    201.07234   -3202.4114   -2749.7604    335.70333    11917.099 
   41850    308.49549     201.2493     -3208.31   -2749.4463    315.03646    11914.881 
   41900    312.54398    201.37659   -3212.5529   -2747.6674    301.13177    11912.526 
   41950    301.66704    201.00362   -3200.1206   -2751.4138    718.41859    11910.023 
   42000    292.22841    200.65451   -3188.4836    -2753.816     1021.837    11907.589 
   42050    290.48948     200.5774   -3185.9133   -2753.8323    1017.4036    11905.391 
   42100    329.02876     201.7489   -3224.9633    -2735.558    68.760515     11903.35 
   42150    298.88017    200.80876   -3193.6254   -2749.0638    927.22951    11901.142 
   42200    308.25461     201.1622   -3205.4066   -2746.9012    636.98329    11899.041 
   42250    309.44712    201.13016   -3204.3386   -2744.0594    601.99369    11896.999 
   42300      299.412    200.87346   -3195.7819   -2750.4293    914.18328    11894.998 
   42350    317.58149    201.35492   -3211.8307   -2739.4523    462.74966    11893.113 
   42400    298.72422    200.90419   -3196.8063   -2752.4767    849.07543    11891.205 
   42450    318.76423    201.44847    -3214.949   -2740.8114    321.29327    11889.369 
   42500    306.25837    201.02134   -3200.7112   -2745.1751    714.27863    11887.444 
   42550    307.95101    201.17754    -3205.918   -2747.8642    695.06978    11885.553 
   42600    308.27886    201.19992   -3206.6641   -2748.1226     675.0229    11883.729 
   42650     301.5568     201.0007   -3200.0234   -2751.4805    904.30225    11881.953 
   42700    293.85032    200.76771   -3192.2571    -2755.177    1099.4988    11880.363 
   42750    309.32816    201.33114   -3211.0379   -2750.9357    689.54517    11878.999 
   42800    303.25713    201.09348   -3203.1161   -2752.0441    833.32135     11877.72 
   42850    303.54573    201.14583   -3204.8611   -2753.3599    807.66015    11876.549 
   42900    295.98984    200.94765   -3198.2551   -2757.9927    983.28183    11875.511 
   42950    298.96754    201.10009   -3203.3364   -2758.6449    921.91852    11874.675 
   43000    313.63679    201.55619   -3218.5398   -2752.0288    507.60654    11873.997 
   43050    307.98621    196.43365    -3214.455   -2756.3488    621.38525    11873.319 
   43100    314.98746    196.65905   -3221.9683   -2753.4483    422.69192    11872.623 
   43150    315.35114    196.62262    -3220.754   -2751.6931    450.57661    11871.833 
   43200    306.56491    196.39574   -3213.1912   -2757.1991    606.06055    11870.951 
   43250    309.21675    196.50826    -3216.942   -2757.0055    452.94035    11870.048 
   43300    309.97086    196.57199   -3219.0665   -2758.0083    431.19781    11869.064 
   43350    301.95975    196.45531   -3215.1771   -2766.0348    562.12574    11867.989 
   43400    305.55011    196.61514   -3220.5046    -2766.022    389.67076    11866.885 
   43450    309.21418    196.68833   -3222.9442   -2763.0115    361.55699    11865.679 
   43500    296.92484    196.31601   -3210.5335   -2768.8803    761.81936    11864.363 
   43550    298.39725    196.40402   -3213.4674   -2769.6241     744.3763    11863.099 
   43600    294.79958    196.33141   -3211.0471    -2772.555    832.76501     11861.93 
   43650    292.66185    196.35242   -3211.7472   -2776.4349    868.02767    11860.872 
   43700    291.34645    196.26512   -3208.8372   -2775.4814    889.78058    11859.967 
   43750    302.49039    196.62845   -3220.9483   -2771.0167    521.13009    11859.203 
   43800    308.13616    196.76905   -3225.6349   -2767.3057    310.87214    11858.407 
   43850    309.94998    196.83857   -3227.9525   -2766.9254    206.97279    11857.459 
   43900    300.57201    196.60879   -3220.2929   -2773.2148    571.60795    11856.314 
   43950    291.79743    196.32712   -3210.9039   -2776.8773    930.63863    11855.178 
   44000     305.0831    196.76915   -3225.6384   -2771.8504    461.90342    11854.184 
[...]
   89400    304.90084    201.86975   -3228.9917   -2775.4748   -317.47391    11905.552 
   89450     288.7746    201.43695   -3214.5651   -2785.0347    44.453681    11902.635 
   89500    301.38729    201.85146   -3228.3819   -2780.0912   -290.94452    11899.401 
   89550    283.73405    201.39666   -3213.2219    -2791.189     236.2712    11895.766 
   89600    273.85136    201.08728   -3202.9092   -2795.5761    610.94572    11891.951 
   89650    286.59482    201.53044   -3217.6814   -2791.3934    291.67248    11888.135 
   89700    285.41097    201.42811   -3214.2702    -2789.743    357.64394    11884.214 
   89750    286.44228    201.50026   -3216.6753   -2790.6141    350.58494    11880.188 
   89800    279.94169    201.30506   -3210.1687   -2793.7767     532.5353    11876.068 
   89850    287.57388    201.51476   -3217.1588   -2789.4144    425.30389    11871.922 
   89900    284.17476     201.4191   -3213.9701   -2791.2817    475.58772    11867.738 
   89950    301.36326     201.9875   -3232.9167   -2784.6617   0.21169146    11863.455 
   90000    291.11363    201.64533   -3221.5109   -2788.5015    412.92251    11858.927 
   90050    292.23823    201.64348   -3221.4493    -2786.767    522.47005    11854.293 
   90100    292.76601    201.73283   -3224.4277   -2788.9605    469.70838     11849.62 
   90150    282.02402    201.44735   -3214.9118   -2795.4224    783.47754     11844.92 
   90200    295.45196    201.88863   -3229.6209   -2790.1585    531.72358    11840.292 
   90250    301.87895     202.0606   -3235.3532   -2786.3312     454.0898    11835.655 
   90300    289.29925    201.61398    -3220.466   -2790.1553    959.58375    11830.983 
   90350    303.14201    202.00677   -3233.5589   -2782.6582    688.56964    11826.453 
   90400     305.5381    202.13535   -3237.8452   -2783.3804    630.21705    11821.989 
   90450    291.11119    201.69177   -3223.0591   -2790.0533    1127.7549    11817.583 
   90500     296.6249    201.87743   -3229.2477   -2788.0407     1054.377    11813.425 
   90550    299.82382    201.89019    -3229.673   -2783.7078    979.97534     11809.52 
   90600     300.6643    201.95865   -3231.9552   -2784.7398      931.129    11805.812 
   90650    275.60351    201.19074   -3206.3579   -2796.4186    1625.8139     11802.33 
   90700    285.23405    201.44813   -3214.9376   -2790.6736    1429.4997    11799.347 
   90750    313.39449    202.29576    -3243.192   -2777.0414    701.80452    11796.784 
   90800     307.0942    202.00637   -3233.5456   -2776.7662    932.84093    11794.341 
   90850    308.12952    202.00209   -3233.4031   -2775.0838    1051.3829    11792.055 
   90900    287.37286    201.42347   -3214.1157   -2786.6704    1669.0027    11790.034 
   90950    296.08679    201.73603   -3224.5345   -2784.1278    1400.3401    11788.522 
   91000    298.31655    201.83721    -3227.907   -2784.1838    1308.7832    11787.454 
   91050    301.57016    201.78315   -3226.1049   -2777.5422    1342.4589    11786.783 
   91100    313.03721     202.1015   -3236.7168   -2771.0977    1097.2237    11786.481 
   91150    306.63923    201.96779   -3232.2596    -2776.157    1250.2058    11786.446 
   91200    294.17233    201.56266   -3218.7552   -2781.1961    1576.8632     11786.77 
   91250    298.92016    201.66584   -3222.1946   -2777.5735     1464.391    11787.595 
   91300    314.12803    202.01112   -3233.7039   -2766.4622    1116.6085    11788.883 
   91350    302.08187    201.63749   -3221.2497   -2771.9258    1470.4609    11790.488 
   91400    308.83948    201.92843   -3230.9478   -2771.5725    1264.3522     11792.51 
   91450      311.405    201.93602   -3231.2008   -2768.0095    1158.1311    11794.903 
   91500    295.47129    201.46895   -3215.6316   -2776.1405    1484.9773    11797.629 
   91550     292.6811    201.36472   -3212.1575   -2776.8165    1486.3893    11800.807 
   91600    294.57881    201.41168   -3213.7228   -2775.5591    1397.8558    11804.487 
   91650    308.82937    201.75925   -3225.3084   -2765.9481    1067.2399    11808.599 
   91700    305.70223    201.67279   -3222.4264   -2767.7175    1097.2605    11812.984 
   91750    306.65376     201.7803   -3226.0101   -2769.8858    986.43615    11817.658 
   91800    294.88186    201.36393   -3212.1311   -2773.5167    1324.5583    11822.602 
   91850    305.02712    201.64401   -3221.4671   -2767.7624    1048.0027    11827.911 
   91900    301.84234    201.56245   -3218.7482   -2769.7806     1108.578     11833.52 
   91950    298.99258    201.37665   -3212.5551   -2767.8263      1186.74    11839.424 
   92000      298.482    201.37413   -3212.4708   -2768.5015    997.44036    11845.657 
   92050    306.23472    196.62758   -3220.9194   -2765.4185    664.12033    11852.127 
   92100    303.84615    196.48056   -3216.0187   -2764.0706    695.08199    11858.685 
   92150    309.86694    196.59829    -3219.943   -2759.0394     546.8849    11865.301 
   92200    301.80031    196.38698   -3212.8995   -2763.9944    717.72558    11871.932 
   92250    301.90154    196.25659   -3208.5529   -2759.4972    660.46958    11878.652 
   92300    305.82798    196.34183   -3211.3945   -2756.4985    476.51797    11885.438 
   92350    305.65922    196.39294    -3213.098   -2758.4531    422.98597     11892.19 
   92400    302.42242    196.21942    -3207.314   -2757.4836    491.59752     11898.88 
   92450    296.04779    195.89073   -3196.3577   -2756.0091    662.22074    11905.557 
   92500    312.97033    196.36069   -3212.0229   -2746.5033    223.02527    11912.259 
   92550    301.21654    196.00821   -3200.2736   -2752.2368    478.19553    11918.829 
   92600     302.2832    196.04204   -3201.4012   -2751.7778     408.3436    11925.335 
   92650    311.09587    196.24305   -3208.1017   -2745.3702    118.46961    11931.748 
   92700    290.73366    195.53885   -3184.6284   -2752.1841    644.09525    11937.974 
   92750    296.81666     195.6873   -3189.5766   -2748.0843    441.46094    11944.218 
   92800    296.55993    195.63831   -3187.9438   -2746.8334    347.46267    11950.428 
   92850    314.79374    196.09333   -3203.1109   -2734.8791   -138.71189    11956.494 
   92900    303.85638    195.74797    -3191.599   -2739.6357    117.52376    11962.235 
   92950    295.85829    195.50292   -3183.4307   -2743.3639    339.12643    11967.739 
   93000    318.51528    196.14712   -3204.9039   -2731.1366   -262.54539     11973.08 
   93050    306.79027    200.78312   -3192.7708   -2736.4435     3.938418    11978.028 
   93100    290.53807    200.28975   -3176.3249   -2744.1715    421.98404    11982.704 
   93150    303.44888     200.5701   -3185.6701   -2734.3129    46.028934    11987.295 
   93200     315.4947    200.89305    -3196.435   -2727.1605   -253.52207    11991.618 
   93250    304.56342    200.50975   -3183.6583   -2730.6432    122.87094     11995.54 
   93300    290.14081     200.0189   -3167.2965    -2735.734    444.75925    11999.236 
   93350    314.50089    200.58842   -3186.2805   -2718.4843   -181.69231    12002.825 
   93400    317.96682    200.69284   -3189.7615   -2716.8099    -219.0365    12006.058 
   93450    304.82629    200.16955   -3172.3183   -2718.9123    175.45242    12008.905 
   93500    318.66152    200.57931   -3185.9769    -2711.992   -253.46814    12011.497 
   93550    320.14353    200.66302   -3188.7673    -2712.578   -373.33072    12013.668 
   93600    299.89981    200.00177   -3166.7257   -2720.6474    187.45741     12015.38 
   93650    311.29303    200.25794   -3175.2647   -2712.2399   -7.3044249    12016.836 
   93700    297.96861    199.86747    -3162.249   -2719.0432     322.5256    12018.016 
   93750    311.42011    200.24356   -3174.7855   -2711.5716    28.751968    12019.035 
   93800    314.55204    200.28252   -3176.0839   -2708.2116    -14.35876     12019.78 
   93850    304.03635    200.04504    -3168.168    -2715.937    191.43738    12020.221 
   93900    316.30792    200.31396   -3177.1321    -2706.648   -119.68416    12020.434 
   93950    304.57693    200.02868   -3167.6228   -2714.5877    130.31513    12020.304 
   94000    316.39111    200.39895   -3179.9651   -2709.3573   -150.58982    12019.901 
   94050    326.06367    205.54976   -3184.9922   -2699.9972    -322.0866    12019.131 
   94100    314.97721    205.25593   -3175.1978   -2706.6931   -11.327847    12017.903 
   94150    305.01539    205.05473    -3168.491   -2714.8037    282.86825    12016.355 
   94200    308.76179    205.08284   -3169.4279   -2710.1681      280.762    12014.662 
   94250    301.81675    204.97917   -3165.9723   -2717.0428    454.35809    12012.843 
   94300     313.2826      205.296   -3176.5332   -2710.5491    198.11996    12010.931 
   94350    317.16389    205.50586   -3183.5288   -2711.7715    38.683912    12008.834 
   94400    294.20643    204.79571   -3159.8571   -2722.2474    569.66929    12006.491 
   94450    309.97195    205.23472   -3174.4908    -2713.431    160.19379    12004.093 
   94500    322.46497    205.58116   -3186.0387   -2706.3965   -147.98317    12001.487 
   94550    312.99963    205.29892   -3176.6305   -2711.0673     181.5329    11998.519 
   94600    304.60359     205.0781   -3169.2701   -2716.1953    455.09691    11995.343 
   94650    298.25932    204.93565   -3164.5217   -2720.8836    622.71237    11992.102 
   94700     309.4098    205.33033   -3177.6778   -2717.4542    298.48744    11988.871 
   94750    320.35955    205.60359   -3186.7864   -2710.2758    58.014211    11985.505 
   94800    312.01837    205.37613   -3179.2043   -2715.1006    295.57736    11981.884 
   94850    315.48737    205.53875   -3184.6249   -2715.3613    204.20224    11978.095 
   94900    314.05432    205.41099   -3180.3663   -2713.2343    335.87963    11974.132 
   94950    302.84321    205.09622   -3169.8739   -2719.4175    756.37357     11970.05 
   95000     321.2018    205.76325   -3192.1084    -2714.345     286.9288     11966.01 
   95050    318.94378    205.78096   -3192.6987    -2718.294    258.37902    11961.852 
   95100    297.74617    205.18036   -3172.6788    -2729.804     845.7684    11957.542 
   95150    300.02458     205.1642     -3172.14   -2725.8762    843.81434    11953.354 
   95200    312.27219    205.65075   -3188.3583    -2723.877    472.63306    11949.286 
   95250    286.60213    204.90709   -3163.5695   -2737.2706    1156.6258    11945.248 
   95300    316.25487     205.7611   -3192.0365   -2721.6313    477.94402    11941.426 
   95350    308.84602    205.54384   -3184.7947   -2725.4097    788.10341    11937.607 
   95400    307.22097    205.51049   -3183.6831   -2726.7152    811.80134    11933.891 
   95450    302.35343    205.44913   -3181.6377   -2731.9099    928.54289    11930.314 
   95500    312.10159    205.71983   -3190.6609   -2726.4334    748.12331    11926.895 
   95550    304.80827    205.46594   -3182.1979   -2728.8187    942.74072    11923.596 
   95600    309.51847    205.64939    -3188.313   -2727.9277    740.54964    11920.468 
   95650    309.34963    205.74006   -3191.3354   -2731.2013    699.91372    11917.425 
   95700    300.93344    205.47847   -3182.6158   -2735.0001    1014.3528    11914.466 
   95750    290.14166    205.13483    -3171.161   -2739.5973    1293.5147    11911.765 
   95800    317.12445    206.01187   -3200.3955    -2728.697    547.57418    11909.374 
   95850    309.60889    205.84339   -3194.7798     -2734.26    738.74579    11907.027 
   95900    306.49599    205.76164   -3192.0548   -2736.1652    860.59362    11904.766 
   95950    311.42463     205.9698   -3198.9934   -2735.7728    744.22877    11902.653 
   96000    310.94763    205.95338    -3198.446    -2735.935    795.44397    11900.638 
   96050    306.96011      205.825   -3194.1666   -2737.5867    932.51927    11898.779 
   96100    311.63792    206.00621   -3200.2071   -2736.6693     839.5078    11897.094 
   96150    313.33104     206.0173   -3200.5766   -2734.5204    784.82184    11895.535 
   96200    318.16868    206.17669   -3205.8897   -2732.6379    646.99574    11894.091 
   96250     304.0063    205.83414   -3194.4715   -2742.2851    1059.0138    11892.706 
   96300     304.6568    205.88023   -3196.0078   -2742.8539     1008.042    11891.556 
   96350    303.19587    205.77106   -3192.3686   -2741.3877    978.60028    11890.652 
   96400    297.61611    205.72374   -3190.7914     -2748.11    1122.4937    11889.962 
   96450     299.7862    205.72239   -3190.7465   -2744.8372    1161.9089    11889.591 
   96500    303.96217    205.78178   -3192.7259   -2740.6052    1056.7736    11889.537 
   96550    305.57408    205.86518   -3195.5058   -2740.9876    931.92883    11889.727 
   96600    294.97644    205.65701    -3188.567   -2749.8119    1110.4596     11890.14 
   96650    308.80789    206.05013   -3201.6709   -2742.3426    715.98788    11890.812 
   96700    301.53775    205.88776   -3196.2585    -2747.744    920.28454    11891.608 
   96750    304.69185    205.89868   -3196.6227   -2743.4167    991.95783    11892.589 
   96800    294.51817    205.68636   -3189.5453   -2751.4718     1136.411    11893.825 
   96850    312.49905    206.31579   -3210.5264   -2745.7078    464.94203    11895.331 
   96900    314.53484    206.30822    -3210.274   -2742.4273    452.20245    11896.833 
   96950    293.17018    205.70673   -3190.2243   -2754.1559    1009.8662    11898.313 
   97000    306.27674    206.12892   -3204.2972   -2748.7338    600.96108    11899.986 
   97050    303.66915    201.00445   -3200.1483   -2748.4634    701.31598    11901.733 
   97100    301.67681    200.99287   -3199.7624    -2751.041    699.15769    11903.555 
   97150    309.77768    201.29906   -3209.9688   -2749.1979    369.21812    11905.441 
   97200    314.05289    201.46445   -3215.4816   -2748.3517    145.98275    11907.225 
   97250    310.40429    201.31524   -3210.5079   -2748.8051    267.55194    11908.801 
   97300    301.74814    201.00511   -3200.1702   -2751.3428     488.1621    11910.228 
   97350    306.89445    201.17542   -3205.8474   -2749.3652    348.33288    11911.586 
   97400    305.35578    201.14207   -3204.7358   -2750.5422    429.01225    11912.846 
   97450     305.4366    201.18155   -3206.0518    -2751.738    373.87947    11914.032 
   97500    303.34144      201.144   -3204.7999   -2753.6025    419.81652    11915.139 
   97550    300.14639    201.08937    -3202.979    -2756.534     517.7652    11916.189 
   97600    291.05988    200.91691   -3197.2303   -2764.3008    650.79695    11917.225 
   97650    313.15341    201.47556   -3215.8519     -2750.06    55.373436    11918.265 
   97700    296.25404    200.90001    -3196.667   -2756.0116    525.53106    11919.103 
   97750    287.86995    200.77931   -3192.6437    -2764.459      690.573    11919.913 
   97800    290.19376     200.9332   -3197.7733   -2766.1321    519.84883    11920.796 
   97850    307.94254    201.46512    -3215.504   -2757.4628   -1.5283891    11921.646 
   97900    311.41802    201.57101   -3219.0337    -2755.823   -185.33744    11922.231 
   97950    304.36754    201.23281   -3207.7602   -2755.0366    62.548928    11922.439 
   98000    295.93611    201.04268   -3201.4228   -2761.2402    279.71776    11922.397 
   98050    309.14767    201.48125   -3216.0417   -2756.2079   -46.931544    11922.163 
   98100    295.52851    201.08924   -3202.9747   -2763.3984    381.46299    11921.646 
   98150    299.31784    201.26075   -3208.6918   -2763.4792    196.59383    11921.016 
   98200    322.01885       201.97   -3232.3332   -2753.3546    -442.4192    11920.148 
   98250    295.83399    201.23521   -3207.8402   -2767.8096    252.69486    11918.808 
   98300    281.00653    200.80869   -3193.6231   -2775.6472    733.04066    11917.284 
   98350    289.07514    201.02845   -3200.9482   -2770.9709    487.76691    11915.818 
   98400    297.04778    201.24019   -3208.0065   -2766.1704    281.42764    11914.339 
   98450     301.4857    201.35435   -3211.8115   -2763.3744    183.74454    11912.721 
   98500    301.32799    201.35514   -3211.8379   -2763.6353    189.16714    11910.896 
   98550    286.88547    200.95131   -3198.3769   -2771.6565    573.77535      11908.9 
   98600    304.55347    201.53145    -3217.715   -2764.7148    92.230254     11906.84 
   98650    296.09629    201.27864    -3209.288   -2768.8673    287.02513    11904.579 
   98700    288.42204    201.08792   -3202.9305   -2773.9246    514.57398    11902.172 
   98750    306.41077    201.55418   -3218.4725   -2762.7097    137.14935    11899.697 
   98800    299.24582    201.42604   -3214.2012   -2769.0957    242.81307    11897.032 
   98850    306.95185      201.701   -3223.3666    -2766.799    -26.99788     11894.15 
   98900    297.26826    201.41605   -3213.8683   -2771.7043    295.48994    11890.987 
   98950    294.07535    201.28154   -3209.3846   -2771.9698    515.47296    11887.667 
   99000    294.52734    201.32667   -3210.8889   -2772.8018    477.69841    11884.307 
   99050    300.71086      201.575   -3219.1668   -2771.8822    235.46051    11880.884 
   99100    295.92515    201.39268   -3213.0892    -2772.923     415.9553    11877.303 
   99150     291.9334    201.26907    -3208.969   -2774.7402    611.57787    11873.626 
   99200    297.42793     201.4171   -3213.9034   -2771.5019    518.29827    11869.952 
   99250     296.5935    201.43879   -3214.6264    -2773.466     575.1043    11866.255 
   99300    295.32521    201.36441   -3212.1469    -2772.873    683.93565    11862.559 
   99350    311.39239    202.01225   -3233.7417   -2770.5691    274.73012    11858.875 
   99400    292.36969    201.42388   -3214.1295   -2779.2517    834.23544    11855.078 
   99450    294.13651    201.35577   -3211.8591   -2774.3533    842.17925    11851.366 
   99500    300.44599    201.58253   -3219.4175   -2772.5269    683.09507     11847.78 
   99550    303.15452    201.68694   -3222.8979   -2771.9785    669.44691    11844.253 
   99600    301.21999    201.62274    -3220.758   -2772.7161    685.42203    11840.774 
   99650    298.57847    201.61819   -3220.6063   -2776.4934    698.73847    11837.332 
   99700     295.4233    201.50878   -3216.9595   -2777.5397    851.73922    11833.955 
   99750    293.87893    201.54352   -3218.1172   -2780.9946    927.47133    11830.725 
   99800    293.93838    201.62367   -3220.7891    -2783.578    953.64182    11827.676 
   99850    295.92012    201.78752   -3226.2507   -2786.0919    880.86473    11824.804 
   99900    303.10893    201.96491   -3232.1637   -2781.3121    776.22032    11822.072 
   99950    291.08462    201.67443    -3222.481   -2789.5146    1055.2658     11819.47 
  100000    294.01241    201.80672   -3226.8907   -2789.5695    902.75786    11817.098 
Loop time of 27.0945 on 1 procs for 100000 steps with 500 atoms

Performance: 318.883 ns/day, 0.075 hours/ns, 3690.779 timesteps/s
98.7% CPU use with 1 MPI tasks x 1 OpenMP threads

MPI task timing breakdown:
Section |  min time  |  avg time  |  max time  |%varavg| %total
---------------------------------------------------------------
Pair    | 22.402     | 22.402     | 22.402     |   0.0 | 82.68
Bond    | 0.0069337  | 0.0069337  | 0.0069337  |   0.0 |  0.03
Neigh   | 0.49697    | 0.49697    | 0.49697    |   0.0 |  1.83
Comm    | 0.78745    | 0.78745    | 0.78745    |   0.0 |  2.91
Output  | 0.018965   | 0.018965   | 0.018965   |   0.0 |  0.07
Modify  | 2.7642     | 2.7642     | 2.7642     |   0.0 | 10.20
Other   |            | 0.6184     |            |       |  2.28

Nlocal:    500 ave 500 max 500 min
Histogram: 1 0 0 0 0 0 0 0 0 0
Nghost:    1600 ave 1600 max 1600 min
Histogram: 1 0 0 0 0 0 0 0 0 0
Neighs:    14688 ave 14688 max 14688 min
Histogram: 1 0 0 0 0 0 0 0 0 0

Total # of neighbors = 14688
Ave neighs/atom = 29.376
Ave special neighs/atom = 0
Neighbor list builds = 599
Dangerous builds = 0

write_data      ${walker}/final_restart_file
write_data      10/final_restart_file

quit
