LAMMPS (19 May 2017)
Processor partition = 10
  using 1 OpenMP thread(s) per MPI task
# gREM variables
variable        lambda world 1000 1005 1010 1015 1020 1025 1030 1035 1040 1045 1050 1055 1060 1065 1070 1075
variable        walker world 0 1 2 3 4 5 6 7 8 9 10 11 12 13 14 15
variable        replica world 1 0 3 9 12 2 5 13 10 4 7 14 6 15 8 11

variable        T0 equal 300.0
variable        press equal 0.0

units           real
atom_style      full
pair_style      lj/cut 5.0

# LJ particles
read_data       ${walker}/restart_file
read_data       10/restart_file
  orthogonal box = (1.01825 1.01825 1.01825) to (23.9817 23.9817 23.9817)
  1 by 1 by 1 MPI processor grid
  reading atoms ...
  500 atoms
  reading velocities ...
  500 velocities
  0 = max # of 1-2 neighbors
  0 = max # of 1-3 neighbors
  0 = max # of 1-4 neighbors
  1 = max # of special neighbors

#dump            dump all xyz 1000 ${walker}/dump.xyz

fix             fxnpt all npt temp ${T0} ${T0} 1000.0 iso ${press} ${press} 10000.0
fix             fxnpt all npt temp 300 ${T0} 1000.0 iso ${press} ${press} 10000.0
fix             fxnpt all npt temp 300 300 1000.0 iso ${press} ${press} 10000.0
fix             fxnpt all npt temp 300 300 1000.0 iso 0 ${press} 10000.0
fix             fxnpt all npt temp 300 300 1000.0 iso 0 0 10000.0
fix             fxgREM all grem ${lambda} -.03 -30000 fxnpt
fix             fxgREM all grem 1050 -.03 -30000 fxnpt
thermo_modify   press fxgREM_press

thermo          50
thermo_style    custom step temp f_fxgREM pe etotal press vol
WARNING: New thermo_style command, previous thermo_modify settings will be lost (../output.cpp:705)
timestep        1.0

temper/grem     100000 1000 ${lambda} fxgREM fxnpt 10294 98392 ${walker}
temper/grem     100000 1000 1050 fxgREM fxnpt 10294 98392 ${walker}
temper/grem     100000 1000 1050 fxgREM fxnpt 10294 98392 10
Neighbor list info ...
  update every 1 steps, delay 10 steps, check yes
  max neighbors/atom: 2000, page size: 100000
  master list distance cutoff = 7
  ghost atom cutoff = 7
  binsize = 3.5, bins = 7 7 7
  1 neighbor lists, perpetual/occasional/extra = 1 0 0
  (1) pair lj/cut, perpetual
      attributes: half, newton on
      pair build: half/bin/newton
      stencil: half/bin/3d/newton
      bin: standard
Per MPI rank memory allocation (min/avg/max) = 5.722 | 5.722 | 5.722 Mbytes
Step Temp f_fxgREM PotEng TotEng Press Volume 
       0    302.51411    243.80567   -3126.8558    -2676.889    527.20155    12109.159 
      50    292.54467    243.53121    -3117.707   -2682.5689    814.44335    12109.228 
     100    290.59329    243.50679    -3116.893   -2684.6575     866.3727    12109.568 
     150    303.24116    243.90345    -3130.115   -2679.0667    486.38052    12110.191 
     200    283.94667    243.20573   -3106.8577   -2684.5085     1086.631    12110.979 
     250    299.19019    243.77316    -3125.772   -2680.7493    664.11831    12112.119 
     300    291.93324    243.43384   -3114.4613   -2680.2327    908.22096    12113.502 
     350     294.9855    243.55004   -3118.3347   -2679.5662    780.00685    12115.181 
     400    281.54913    243.07984   -3102.6612   -2683.8782     1095.717    12117.159 
     450    292.05792    243.51302   -3117.1006   -2682.6866    661.87842    12119.504 
     500    304.75731    243.95675   -3131.8917   -2678.5883      221.265    12122.046 
     550    296.06655     243.5537   -3118.4568   -2678.0802    597.47394    12124.601 
     600    281.68452    243.05567   -3101.8557   -2682.8714    1132.9941    12127.312 
     650    283.26939    243.07001   -3102.3337   -2680.9919    1038.8239    12130.452 
     700    297.04821    243.57227   -3119.0758   -2677.2391    443.30806    12133.977 
     750    307.08827    243.83824   -3127.9412   -2671.1707    70.283997    12137.579 
     800    301.33602    243.45679   -3115.2264   -2667.0119    375.42884     12141.09 
     850    297.45581    243.31326   -3110.4419    -2667.999    535.74213    12144.625 
     900    301.66675    243.59145   -3119.7148   -2671.0084    290.30482    12148.246 
     950    294.23622    243.30509   -3110.1697   -2672.5156    455.22968    12151.884 
    1000    290.65662    243.07048   -3102.3495   -2670.0198    634.71749    12155.604 
    1050    290.93595    243.11087   -3103.6956   -2670.9504    654.20379    12159.492 
    1100    286.74834    242.93969   -3097.9896   -2671.4732     843.4847    12163.585 
    1150    296.26573    243.20112    -3106.704   -2666.0312    539.74556    12167.947 
    1200    294.62116    243.14922    -3104.974   -2666.7474     455.8252     12172.45 
    1250    295.51242    243.08461   -3102.8204   -2663.2681    417.37833    12177.038 
    1300    302.95163    243.32327   -3110.7758   -2660.1582    213.21809    12181.671 
    1350    294.81308    243.04507   -3101.5022   -2662.9901    479.76878    12186.278 
    1400    294.07387    242.98963   -3099.6545   -2662.2419    510.55748    12190.979 
    1450    299.59308    243.16807   -3105.6024   -2659.9804    285.52218    12195.773 
    1500    288.20304    242.60049    -3086.683   -2658.0028    684.72369    12200.593 
    1550    298.52582    242.88564   -3096.1879   -2652.1533    410.73638    12205.574 
    1600     296.6678    242.76372   -3092.1239    -2650.853    409.57285    12210.647 
    1650    305.45822    243.00469   -3100.1562   -2645.8102    168.18198    12215.762 
    1700    310.64208    243.00026   -3100.0088   -2637.9522   -2.3116842    12220.818 
    1750    307.52791    242.84289    -3094.763   -2637.3385    6.7830385    12225.707 
    1800    309.32669    242.95789   -3098.5962   -2638.4962   -85.057676    12230.409 
    1850    297.84459    242.46986   -3082.3286   -2639.3074    322.99707    12234.928 
    1900    290.23392    242.11547   -3070.5155   -2638.8145    649.16146    12239.457 
    1950     289.2723    242.17461    -3072.487   -2642.2163    657.85537    12244.168 
    2000    301.07191    242.40633   -3080.2109   -2632.3893    369.83434    12249.048 
    2050    302.79756      247.339   -3077.9665   -2627.5781    384.12972    12253.989 
    2100    295.49829    247.08993   -3069.6644    -2630.133    635.53128    12258.995 
    2150    298.22967    247.15832   -3071.9441   -2628.3501     487.9818    12264.187 
    2200    307.10091    247.42139   -3080.7132   -2623.9238    155.31848    12269.478 
    2250    296.88494    247.07018    -3069.006   -2627.4121    475.84354    12274.729 
    2300    296.76573    247.05436   -3068.4786    -2627.062    471.31704    12280.063 
    2350    297.47196    247.09915   -3069.9717   -2627.5047    401.52903    12285.512 
    2400    299.33676    247.10113   -3070.0375   -2624.7968    240.57954    12291.028 
    2450    306.25017    247.29473   -3076.4911   -2620.9671   -119.58955    12296.496 
    2500    311.93091    247.44932   -3081.6441   -2617.6705    -342.5605    12301.747 
    2550    295.77769     246.9078   -3063.5934   -2623.6465    215.57554    12306.698 
    2600    301.30393    247.04767   -3068.2558    -2620.089    75.901172    12311.556 
    2650    299.14724    246.92976   -3064.3252   -2619.3664    39.497831     12316.32 
    2700    299.27223    246.91275   -3063.7583   -2618.6135    3.8126071     12320.95 
    2750    294.36555    246.67239   -3055.7465      -2617.9    174.66551    12325.441 
    2800    300.15361    246.87668    -3062.556   -2616.1002   -22.407399    12329.848 
    2850    310.14669     247.3104   -3077.0132   -2615.6935   -409.33835    12334.069 
    2900    306.12669    247.18781    -3072.927   -2617.5867   -279.77533    12337.924 
    2950    292.32678     246.6257   -3054.1899   -2619.3759     158.8967    12341.479 
    3000    294.08991     246.6509     -3055.03   -2617.5936       -13.41    12344.926 
    3050    299.97816    241.98401   -3066.1337   -2619.9389   -240.24977    12348.193 
    3100    296.62527    241.75623   -3058.5409   -2617.3333   -50.022691    12351.183 
    3150    300.35853    241.91352   -3063.7841   -2617.0235   -227.52348    12353.955 
    3200    313.29979    242.26465   -3075.4882   -2609.4786   -646.37299    12356.404 
    3250    299.40663    241.79767   -3059.9225   -2614.5778   -237.77009    12358.355 
    3300    287.59714    241.36431   -3045.4771   -2617.6981    180.75641    12359.989 
    3350    298.38693    241.71378    -3057.126   -2613.2981   -90.246155    12361.513 
    3400    300.44628    241.84764   -3061.5879   -2614.6968   -182.59131    12362.826 
    3450    312.04377    242.23885   -3074.6283   -2610.4868   -535.80612    12363.828 
    3500    303.23458    241.84196   -3061.3988   -2610.3603   -285.94752    12364.393 
    3550    310.39752    242.06078   -3068.6926   -2606.9998   -591.29607    12364.569 
    3600    300.22759    241.69693   -3056.5642   -2609.9984   -343.04392    12364.275 
    3650    297.76929    241.61884   -3053.9615   -2611.0522   -286.66252    12363.605 
    3700    314.11541    242.20196   -3073.3987   -2606.1758   -693.69282    12362.558 
    3750    304.92447    241.91135   -3063.7117   -2610.1596   -317.20306    12361.006 
    3800    291.39649      241.501   -3050.0332    -2616.603    163.66791    12359.114 
    3850    296.82727    241.65289   -3055.0963   -2613.5882    31.371785    12357.093 
    3900    302.44186    241.94506   -3064.8353    -2614.976   -270.90816    12354.912 
    3950    317.69462    242.59396   -3086.4655   -2613.9188   -797.23256    12352.374 
    4000    297.29766    241.81126   -3060.3754   -2618.1677   -46.315053     12349.28 
    4050    294.81288    246.69103   -3056.3678   -2617.8559    78.245462    12345.949 
    4100    302.16495    246.92343   -3064.1144   -2614.6669   -167.11331     12342.49 
    4150    291.43212     246.4366   -3047.8868   -2614.4036    331.03457    12338.819 
    4200    293.76217    246.65981   -3055.3271   -2618.3781    325.45253    12335.145 
    4250    299.26757    246.80542   -3060.1807   -2615.0429    171.71612    12331.496 
    4300     306.4619    247.03712    -3067.904   -2612.0651   -50.410051    12327.768 
    4350    315.44374    247.32082   -3077.3607   -2608.1621   -314.65172    12323.843 
    4400    304.36086    246.98368   -3066.1228    -2613.409   -25.466849    12319.611 
    4450    314.31672    247.26381   -3075.4604   -2607.9381   -216.27006     12315.15 
    4500    303.29786    246.93271   -3064.4237   -2613.2911    202.49873    12310.448 
    4550    305.35244    246.97608   -3065.8694   -2611.6808    287.85149    12305.669 
    4600    305.25429     247.0004   -3066.6799   -2612.6373    357.21562     12300.89 
    4650      307.336    247.09483   -3069.8278   -2612.6888     289.1976    12296.126 
    4700    307.58211    247.12359   -3070.7862   -2613.2811    280.81545    12291.358 
    4750    302.66186    246.94824   -3064.9414   -2614.7548    469.60393    12286.602 
    4800    307.21523    247.07472   -3069.1573    -2612.198    423.17771    12281.925 
    4850    304.85193    247.00485   -3066.8284   -2613.3842    566.80777    12277.318 
    4900    298.02052     246.8738     -3062.46    -2619.177    770.53725    12272.865 
    4950    301.47842    246.99594   -3066.5312   -2618.1049    695.69559    12268.652 
    5000    293.31035    246.81356   -3060.4519    -2624.175    975.44399    12264.684 
    5050    299.94431    247.00101   -3066.7005   -2620.5561    709.23211    12261.083 
    5100    323.45989    247.91317   -3097.1056   -2615.9835   -147.95248    12257.672 
    5150    311.31118    247.55011   -3085.0036   -2621.9518    231.70558    12254.089 
    5200     304.1182    247.28451   -3076.1504   -2623.7977     524.0685     12250.48 
    5250    303.64932    247.32107   -3077.3691   -2625.7137    543.90594    12246.989 
    5300    301.28716    247.31355   -3077.1184   -2628.9766    598.30502    12243.634 
    5350    298.35515     247.2011     -3073.37   -2629.5893    673.80064    12240.451 
    5400    296.89171    247.23791    -3074.597    -2632.993    686.29462    12237.478 
    5450    294.82965    247.17277   -3072.4256   -2633.8888    755.22249    12234.721 
    5500     305.7513    247.60258   -3086.7528   -2631.9709     390.0293    12232.173 
    5550    305.62692    247.54425   -3084.8084   -2630.2115    406.26428    12229.705 
    5600     305.6859    247.60633   -3086.8778   -2632.1932    434.11835    12227.273 
    5650    303.10494    247.63338   -3087.7792   -2636.9335    508.12086    12224.912 
    5700    293.10843    247.36385   -3078.7949   -2642.8184    746.03698    12222.687 
    5750    302.77327    247.72528   -3090.8427   -2640.4904    411.09303    12220.667 
    5800    300.62444    247.70057   -3090.0189   -2642.8628    455.66217    12218.741 
    5850    296.32113    247.65238   -3088.4127   -2647.6574    467.75805    12216.901 
    5900    295.11971     247.6539   -3088.4633   -2649.4951    448.20675    12215.157 
    5950    291.76522    247.65422   -3088.4739   -2654.4952     541.6532      12213.5 
    6000    296.28493    247.83125   -3094.3751   -2653.6737    353.58846    12211.973 
    6050     297.8515    248.01777   -3100.5924   -2657.5608    183.71491     12210.49 
    6100    293.28319    247.80957   -3093.6523   -2657.4158    279.89853    12208.964 
    6150    298.28801    248.17662   -3105.8874   -2662.2066   -24.733721    12207.417 
    6200    298.99141    248.16298   -3105.4327   -2660.7056    16.739924    12205.721 
    6250    286.54058    247.77037   -3092.3456   -2666.1382    527.03915     12203.91 
    6300    289.54279    247.80066   -3093.3552   -2662.6822     498.9079     12202.21 
    6350    290.02061    247.96326   -3098.7753   -2667.3916    346.60564    12200.628 
    6400    290.27481    248.06732   -3102.2441   -2670.4823    309.26707    12199.077 
    6450    278.33184     247.6301   -3087.6698   -2673.6723    642.93233    12197.569 
    6500    286.44163    247.91109   -3097.0364   -2670.9762    282.08906     12196.23 
    6550    297.87575    248.36017   -3112.0056    -2668.938   -166.86186     12194.89 
    6600    298.32493    248.42273    -3114.091   -2670.3553   -151.51052    12193.326 
    6650    286.97071    247.90488   -3096.8292    -2669.982    362.77723    12191.559 
    6700    288.76249    248.01156   -3100.3854    -2670.873    347.86697    12189.785 
    6750     279.5775    247.74146   -3091.3819   -2675.5316    605.44272    12188.076 
    6800    284.54476    247.90671   -3096.8902   -2673.6514     598.1197    12186.529 
    6850    285.50962    247.92534   -3097.5114   -2672.8375    655.73825    12185.149 
    6900    289.57534    248.07957   -3102.6524    -2671.931    481.87927     12183.96 
    6950    290.08317    248.03361   -3101.1205   -2669.6438    433.62014    12182.897 
    7000    295.22116    248.27535   -3109.1783   -2670.0592    197.41055    12181.905 
    7050    292.29176    243.15372   -3105.1241   -2670.3623    332.53217    12180.879 
    7100    289.07349    243.05617   -3101.8724   -2671.8975     506.1452    12179.849 
    7150     282.3474    242.78678   -3092.8925   -2672.9222     750.8257    12178.942 
    7200    283.14759    242.87748    -3095.916   -2674.7554    725.95249    12178.263 
    7250    294.75543    243.27395   -3109.1318   -2670.7055    366.77909    12177.781 
    7300    295.25056    243.23615   -3107.8716   -2668.7087     238.3946    12177.355 
    7350    303.23708    243.45757   -3115.2524   -2664.2102   -65.971612    12176.864 
    7400    293.71005    243.08923   -3102.9745   -2666.1031    272.16311      12176.2 
    7450    295.88255    243.09663   -3103.2211   -2663.1182    271.56667    12175.489 
    7500    293.56939    243.05987   -3101.9956   -2665.3334    369.36715    12174.753 
    7550    288.41967    242.99921   -3099.9736   -2670.9712    544.96437     12174.05 
    7600    287.72395    242.91228   -3097.0761   -2669.1086    670.92607    12173.488 
    7650     300.5485    243.37602   -3112.5339   -2665.4908    294.61165    12173.083 
    7700    300.60109    243.31086   -3110.3621   -2663.2408    309.34165    12172.691 
    7750    297.10708    243.17735   -3105.9118   -2663.9876    446.14564    12172.311 
    7800    284.36467    242.71753   -3090.5842   -2667.6133    828.89665    12172.023 
    7850    288.48648    242.83829   -3094.6096   -2665.5078    750.39402    12171.984 
    7900    288.45405    242.77151   -3092.3837   -2663.3301    782.38269    12172.203 
    7950    299.50352    243.10814   -3103.6046   -2658.1158    451.25083    12172.651 
    8000    293.16807    242.98944    -3099.648   -2663.5827     639.4888    12173.216 
    8050    299.57541    248.25306   -3108.4355   -2662.8398    457.63482    12173.947 
    8100    295.52944    248.10297   -3103.4324   -2663.8548    574.42453    12174.799 
    8150    300.04879    248.18281   -3106.0936   -2659.7938    462.63158    12175.793 
    8200    290.93495    247.77148   -3092.3828   -2659.6391    753.17622    12176.917 
    8250    289.45602    247.75655   -3091.8849    -2661.341    742.56445    12178.282 
    8300    295.48172     247.8706   -3095.6866     -2656.18    665.99675    12179.898 
    8350    289.53639    247.66181   -3088.7271   -2658.0637     962.9625    12181.753 
    8400    299.68751    248.00544   -3100.1814   -2654.4189    603.69204    12183.947 
    8450    304.23073    248.18601   -3106.2002   -2653.6801    419.02899    12186.323 
    8500    294.05399    247.81296   -3093.7652   -2656.3822    666.65328    12188.803 
    8550    302.88954    248.06673   -3102.2245   -2651.6992    350.43837    12191.467 
    8600    289.54827    247.47956   -3082.6519   -2651.9708    829.93328    12194.236 
    8650    288.99805    247.52245   -3084.0816   -2654.2189    794.79515    12197.276 
    8700    298.90318    247.84974   -3094.9914   -2650.3955    445.56942    12200.577 
    8750    288.67647    247.48754   -3082.9182   -2653.5338    792.50379    12204.024 
    8800    294.68139    247.67915    -3089.305   -2650.9888    645.52605    12207.749 
    8850    310.06181    248.14421   -3104.8068   -2643.6134    150.86885    12211.665 
    8900    301.84101    247.77615   -3092.5384   -2643.5728    359.50543    12215.564 
    8950    297.96309     247.7285     -3090.95   -2647.7525    370.57594    12219.498 
    9000     290.1843    247.36446   -3078.8152   -2647.1881    562.63254    12223.503 
    9050    277.24676    251.91226   -3063.7419   -2651.3583    968.45019    12227.696 
    9100    292.55641    252.41853   -3080.6176   -2645.4621    525.15839    12232.245 
    9150    303.05762    252.70305   -3090.1017   -2639.3265    115.92233     12236.97 
    9200    302.71446    252.69489   -3089.8296   -2639.5648    57.960091    12241.637 
    9250    287.22193    252.12479   -3070.8265   -2643.6056    618.34855    12246.243 
    9300    283.06417    251.93387   -3064.4623   -2643.4258    821.63572    12251.052 
    9350    280.07976    251.86062   -3062.0207   -2645.4233    878.46494    12256.191 
    9400    286.78752    251.95909   -3065.3029   -2638.7282    664.90305    12261.675 
    9450    294.84054    252.18915   -3072.9718   -2634.4188    293.86297    12267.405 
    9500    307.87964     252.6957   -3089.8567   -2631.9091   -216.20918    12273.158 
    9550    301.56505    252.46642   -3082.2139   -2633.6587   -50.464906    12278.721 
    9600      293.178    252.10254   -3070.0847   -2634.0046     224.5052    12284.132 
    9650    290.22496    252.00813   -3066.9378   -2635.2502    252.09551    12289.526 
    9700    290.10889    251.91666   -3063.8887   -2632.3737    170.06044    12294.946 
    9750    291.87356    252.00233   -3066.7444   -2632.6046    35.400457    12300.344 
    9800    292.01886    251.99853   -3066.6175   -2632.2616    1.2555095    12305.653 
    9850     290.4564    251.99077   -3066.3592   -2634.3273    5.5195935    12310.829 
    9900     293.0722     251.9776   -3065.9201   -2629.9974   -83.330011    12315.881 
    9950    296.09751    252.11006   -3070.3352   -2629.9126   -187.23789    12320.757 
   10000    296.88058     252.1079   -3070.2633   -2628.6759   -217.96053    12325.418 
   10050    301.52743    252.19207   -3073.0689   -2624.5697   -375.15183    12329.822 
   10100    287.86127    251.71383   -3057.1276   -2628.9558    5.2796732    12333.911 
   10150    281.28642    251.49469   -3049.8229   -2631.4306    154.74715    12337.857 
   10200    292.34937    251.88222   -3062.7407   -2627.8932    -248.7807    12341.728 
   10250    305.13095    252.30244   -3076.7481   -2622.8889   -685.90011    12345.326 
   10300    287.64254    251.61698   -3053.8995    -2626.053   -112.45333    12348.473 
   10350    288.24613    251.56354    -3052.118   -2623.3737   -17.204687    12351.389 
   10400     299.8526    251.95984   -3065.3279   -2619.3199   -349.00556    12354.146 
   10450    289.66519    251.61548   -3053.8493   -2622.9943    -47.31056    12356.616 
   10500    284.19218    251.41683   -3047.2278   -2624.5134    163.18355    12358.921 
   10550    284.26154    251.37295   -3045.7649   -2622.9474    193.94605    12361.178 
   10600    283.41778     251.4117   -3047.0566   -2625.4941     123.4455      12363.4 
   10650    286.31896    251.45464   -3048.4879   -2622.6102    16.200688     12365.56 
   10700    291.31327    251.62546   -3054.1821   -2620.8756   -204.43762    12367.601 
   10750    293.59641    251.64684   -3054.8948   -2618.1924   -333.36505    12369.408 
   10800    314.30278    252.34638   -3078.2126    -2610.711   -943.15869    12370.855 
   10850    302.47853    251.95544   -3065.1814   -2615.2675   -573.92466    12371.708 
   10900    292.04065    251.55668   -3051.8895   -2617.5011   -193.93595    12372.088 
   10950    290.51136    251.45644   -3048.5478   -2616.4342   -55.365869    12372.199 
   11000    288.22282    251.40579   -3046.8596     -2618.15    37.943706    12372.135 
   11050    296.79774     251.6617   -3055.3899   -2613.9257   -183.68078     12371.92 
   11100    285.42884    251.22268   -3040.7561   -2616.2023    233.21049    12371.495 
   11150    285.54647    251.14149   -3038.0496   -2613.3209    358.17473    12371.032 
   11200    287.21746    251.21088   -3040.3625   -2613.1483     290.0015    12370.627 
   11250    296.14083    251.51417   -3050.4722   -2609.9851   -85.612682    12370.214 
   11300    293.32188    251.35445   -3045.1483   -2608.8542   -51.855558    12369.639 
   11350     305.0183    251.75735   -3058.5783   -2604.8867   -342.53328    12368.855 
   11400    290.65395    251.27699   -3042.5665   -2610.2407    196.20144    12367.784 
   11450    286.04189     251.1382     -3037.94   -2612.4743    308.68755     12366.65 
   11500    302.50178    251.62346   -3054.1154   -2604.1669   -153.45613      12365.5 
   11550    294.87822    251.28339   -3042.7795   -2604.1705     127.7844    12364.156 
   11600    290.13853    251.08759   -3036.2531   -2604.6941    295.27608    12362.724 
   11650     304.5122    251.67226   -3055.7421   -2602.8033   -166.68082    12361.272 
   11700    317.95546    252.14104    -3071.368   -2598.4334   -501.32258    12359.565 
   11750    295.75368     251.1878   -3039.5933   -2599.6821    411.34186     12357.49 
   11800    294.25578    251.10933   -3036.9778   -2599.2946    568.65007     12355.44 
   11850     305.7947    251.54095    -3051.365   -2596.5186    202.11124    12353.528 
   11900    304.77338    251.50025   -3050.0082   -2596.6809    218.95764    12351.598 
   11950    301.47706    251.40348   -3046.7827   -2598.3584    333.64653    12349.631 
   12000    301.55113    251.35092   -3045.0305   -2596.4961    385.63108    12347.679 
   12050     295.6205    251.14559   -3038.1865   -2598.4734    575.21456    12345.794 
   12100    294.79552    251.04001    -3034.667    -2596.181    670.32345    12344.073 
   12150    312.75991     251.6954   -3056.5133   -2591.3066    176.24862    12342.534 
   12200    301.27547    251.23951   -3041.3171   -2593.1927    572.97106    12340.982 
   12250    305.27288    251.36017   -3045.3391   -2591.2688    471.57252    12339.546 
   12300    313.97722    251.72504   -3057.5013    -2590.484    221.19107    12338.214 
   12350    296.08487    251.05805   -3035.2683   -2594.8645    879.74458    12336.901 
   12400    302.61196    251.34394   -3044.7981   -2594.6857    698.43004    12335.857 
   12450    301.28923    251.20631   -3040.2102   -2592.0653    763.67234    12335.077 
   12500    300.73966    251.15739   -3038.5797   -2591.2523    774.02265     12334.57 
   12550    319.09416    251.79233   -3059.7445   -2585.1161    181.87336    12334.294 
   12600    306.28132    251.43733    -3047.911   -2592.3407    482.88121    12334.035 
   12650    313.09601    251.66506   -3055.5019   -2589.7953    260.96286     12333.84 
   12700     310.0831    251.48777   -3049.5925   -2588.3673    295.40125    12333.663 
   12750    308.58999    251.34562   -3044.8541   -2585.8499    381.61288    12333.513 
   12800    297.09251    250.99267    -3033.089   -2591.1864    866.31223    12333.455 
   12850     299.4881    251.16653   -3038.8843   -2593.4184    795.13207    12333.699 
   12900    314.30153    251.66717   -3055.5724   -2588.0727    332.35683    12334.225 
   12950    308.52651    251.41926   -3047.3087   -2588.3989    544.69777    12334.841 
   13000    312.50121    251.55021   -3051.6738   -2586.8519    391.06703     12335.58 
   13050    315.74483    251.66818   -3055.6061   -2585.9596    180.79573    12336.385 
   13100    311.40718    251.56847   -3052.2825   -2589.0879    303.90017    12337.171 
   13150    313.31599    251.66585   -3055.5282   -2589.4944    321.29747    12337.956 
   13200    290.67481    250.91064   -3030.3547   -2597.9979    1002.1416    12338.809 
   13250    300.80503    251.37545   -3045.8483   -2598.4236    590.26622    12340.021 
   13300    308.76746    251.72107    -3057.369   -2598.1008    239.80173    12341.443 
   13350    300.42379     251.3164   -3043.8801   -2597.0225    539.02141    12342.891 
   13400    307.19087    251.60878   -3053.6261   -2596.7029    291.39057    12344.456 
   13450    308.87719    251.59904   -3053.3012   -2593.8698    218.60167    12346.062 
   13500    304.28346    251.33721   -3044.5735   -2591.9749    428.66666    12347.673 
   13550    308.19598    251.54634   -3051.5445   -2593.1264    309.19449    12349.351 
   13600    305.31085    251.48805   -3049.6018    -2595.475    351.53084    12351.087 
   13650    308.37406    251.71924   -3057.3078   -2598.6248    247.39986    12352.869 
   13700    306.94838    251.63644   -3054.5481   -2597.9856     328.6058    12354.663 
   13750    307.01657    251.64129   -3054.7097   -2598.0458    202.87893    12356.507 
   13800    311.81592    251.74612   -3058.2039   -2594.4013    4.9556825    12358.321 
   13850    296.79252    251.33475   -3044.4918   -2603.0354    393.99607    12360.038 
   13900    296.02563    251.41199   -3047.0663   -2606.7506    308.62136    12361.825 
   13950    305.83342    251.76798   -3058.9327   -2604.0287   -4.6946702    12363.636 
   14000    283.47364     250.9715   -3032.3832   -2610.7376    744.09788    12365.384 
   14050    293.64707    246.43744   -3047.9146   -2611.1368    340.19608    12367.358 
   14100    291.27219    246.34191   -3044.7302   -2611.4849    216.19179    12369.406 
   14150      302.004    246.81858   -3060.6194   -2611.4113   -319.21906    12371.403 
   14200    299.76935    246.79346   -3059.7819   -2613.8977   -386.37918    12373.122 
   14250    283.28496    246.30007   -3043.3356   -2621.9707    7.2233491    12374.488 
   14300    292.47991    246.73482   -3057.8275   -2622.7858   -391.83358    12375.658 
   14350    293.36982    246.81002   -3060.3339   -2623.9685   -417.17249    12376.495 
   14400    286.53603    246.60765   -3053.5884   -2627.3878   -223.74187    12376.956 
   14450    291.77449    246.83707   -3061.2358   -2627.2433   -464.84967      12377.1 
   14500    286.27236    246.79947   -3059.9824    -2634.174   -368.37676    12376.853 
   14550    290.60455    246.94133   -3064.7112   -2632.4589   -520.05235    12376.217 
   14600     286.0402    246.96576   -3065.5254   -2640.0623   -507.26553    12375.134 
   14650     293.8055    247.21819   -3073.9395   -2636.9261   -820.66936    12373.573 
   14700    281.29068    246.78494    -3059.498   -2641.0994    -462.4513    12371.418 
   14750    271.21149    246.48839    -3049.613   -2646.2065   -121.04357    12368.834 
   14800    282.01618    246.84948   -3061.6493   -2642.1716   -534.35804    12365.983 
   14850    294.12677    247.22105   -3074.0349   -2636.5436   -937.00206    12362.655 
   14900    302.08296    247.56197   -3085.3991   -2636.0736   -1094.9809    12358.606 
   14950    285.21309    246.92469   -3064.1562   -2639.9233   -379.88529    12353.792 
   15000    268.21065    246.38772   -3046.2575   -2647.3145    247.58566    12348.568 
   15050    275.22255    246.69405   -3056.4682   -2647.0955    8.7750576    12343.237 
   15100    283.41086    246.96881   -3065.6271    -2644.075   -258.44827     12337.72 
   15150    296.34203    247.46408   -3082.1361   -2641.3498   -640.64984    12331.841 
   15200    292.45329     247.3404   -3078.0133   -2643.0112   -419.01076    12325.414 
   15250     289.1443    247.17637   -3072.5456   -2642.4654   -222.31158    12318.539 
   15300    290.56358    247.23584   -3074.5279   -2642.3366   -181.94101    12311.317 
   15350    285.18775    247.14597   -3071.5322   -2647.3371    107.38481    12303.783 
   15400    288.54992    247.31962   -3077.3208   -2648.1247   -17.966108     12296.06 
   15450    305.89672    247.87855   -3095.9516   -2640.9534   -524.76246    12288.056 
   15500    278.30271    246.85359   -3061.7864   -2647.8322    462.57022    12279.625 
   15550    274.77462    246.74874   -3058.2912   -2649.5848    644.29033    12271.183 
   15600    298.69668    247.59969   -3086.6563   -2642.3676   -35.657655    12262.818 
   15650    291.15271     247.3323   -3077.7435   -2644.6759    350.17205    12254.273 
   15700    300.17252    247.65368   -3088.4559    -2641.972     231.8863     12245.66 
   15750     302.8868     247.7988   -3093.2932   -2642.7721    236.06849    12236.951 
   15800    305.31434    247.87536   -3095.8455   -2641.7135    344.71419    12228.128 
   15850    296.84905    247.51512   -3083.8372   -2642.2967    838.43956    12219.276 
   15900    283.49887    247.05246   -3068.4154   -2646.7323    1360.3574    12210.668 
   15950    290.01525    247.29091   -3076.3638   -2644.9881    1218.0306    12202.529 
   16000    288.37259    247.19632   -3073.2107   -2644.2783    1337.4217    12194.847 
   16050    298.64391    252.51828   -3083.9428   -2639.7326    1072.4959    12187.661 
   16100    304.98475    252.68559   -3089.5198   -2635.8781    978.07805     12180.87 
   16150    304.91927     252.7204     -3090.68   -2637.1357    1068.4893    12174.405 
   16200    301.56151    252.57726   -3085.9087   -2637.3588    1287.3407    12168.325 
   16250    293.10476    252.30636   -3076.8787   -2640.9076    1640.0138    12162.747 
   16300    287.46343    251.99842    -3066.614   -2639.0339    1879.3313    12157.874 
   16350    299.28543     252.4827   -3082.7568   -2637.5924    1533.8157     12153.81 
   16400    306.05199    252.71475   -3090.4918   -2635.2627    1361.4591    12150.417 
   16450    304.65557    252.53122   -3084.3738   -2631.2218     1454.215    12147.608 
   16500    313.75936    252.90612   -3096.8706   -2630.1773    1132.7556    12145.377 
   16550    303.70019    252.61453    -3087.151     -2635.42    1470.7387    12143.629 
   16600    298.90982     252.3689   -3078.9633   -2634.3576    1704.8343    12142.503 
   16650    308.46663    252.83642   -3094.5472   -2635.7265    1316.0889    12142.107 
   16700     293.4644    252.35506   -3078.5021    -2641.996    1710.6623     12142.34 
   16750    300.94926    252.55673   -3085.2245   -2637.5853    1523.8141    12143.328 
   16800    306.81692    252.71361   -3090.4537   -2634.0868    1345.4389    12145.018 
   16850    313.72631    252.89604   -3096.5347   -2629.8906    1090.5055     12147.29 
   16900     290.8445    252.11957   -3070.6523   -2638.0432    1750.2848    12150.098 
   16950    296.22098    252.29761    -3076.587   -2635.9808    1560.0165      12153.7 
   17000    297.84619    252.42492   -3080.8308   -2637.8072    1416.7437    12158.068 
   17050    311.44589    247.86532   -3095.5105   -2632.2583    928.65077    12163.068 
   17100    301.03313    247.45043    -3081.681    -2633.917      1156.99    12168.521 
   17150    307.24793    247.65264   -3088.4214   -2631.4134    905.04889    12174.463 
   17200    301.23432    247.44918   -3081.6393    -2633.576    1063.0476    12180.837 
   17250    302.17988     247.4632   -3082.1066   -2632.6369     1064.534    12187.693 
   17300    297.77522    247.35217   -3078.4056   -2635.4875    1174.1744    12195.064 
   17350    307.76959    247.64007   -3088.0023   -2630.2184    767.01757    12202.982 
   17400    305.48755    247.53546   -3084.5154   -2630.1258    813.08149    12211.261 
   17450    293.12742    247.09014   -3069.6712   -2633.6664    1091.9782    12219.941 
   17500    304.72207    247.54015   -3084.6717   -2631.4207     582.2015    12229.115 
   17550    296.29093     247.2218   -3074.0601   -2633.3498    786.22779    12238.594 
   17600    300.20849    247.40909   -3080.3028   -2633.7655    535.01528     12248.43 
   17650     312.5496    247.77825   -3092.6083   -2627.7144    75.110475    12258.499 
   17700    292.08261    247.01679   -3067.2265   -2632.7757    716.09245    12268.629 
   17750    295.34301    247.08203   -3069.4009   -2630.1005    507.13773    12279.064 
   17800    307.25838    247.46156   -3082.0521   -2625.0285   -114.28278    12289.717 
   17850    298.24798    247.13441    -3071.147   -2627.5257   -26.247852    12300.285 
   17900     279.1826    246.54658   -3051.5525   -2636.2896    402.63505    12310.826 
   17950    298.82232    247.13904   -3071.3014   -2626.8258   -189.83537    12321.489 
   18000    294.95279    247.07032   -3069.0107   -2630.2908   -122.74521    12332.044 
   18050    294.93687    246.97295   -3065.7651   -2627.0689   -135.05358    12342.469 
   18100    298.51145    246.97332   -3065.7772   -2621.7641   -342.34029    12352.763 
   18150    283.08327    246.46383   -3048.7945   -2627.7296   -1.5506912     12362.84 
   18200    282.17099    246.46141   -3048.7137   -2629.0057   -107.83943     12372.84 
   18250    306.08497    247.18776   -3072.9252    -2617.647   -886.47976    12382.683 
   18300    306.27111    247.22744   -3074.2479   -2618.6929    -948.0731    12391.993 
   18350    295.91708    246.78862   -3059.6208   -2619.4666   -617.83295    12400.706 
   18400    286.34368    246.40531   -3046.8437   -2620.9292   -381.00749    12409.001 
   18450    295.36605    246.75192   -3058.3973   -2619.0627   -748.55095    12416.966 
   18500    291.47786    246.50049   -3050.0163   -2616.4651    -659.1701    12424.449 
   18550    295.32905    246.53889   -3051.2964   -2612.0169   -775.11143    12431.454 
   18600    294.46054    246.43311   -3047.7703   -2609.7825   -773.82903    12437.935 
   18650    299.45167    246.56412   -3052.1373   -2606.7256   -1005.5784    12443.854 
   18700    294.20035    246.25929   -3041.9762   -2604.3755   -774.82331    12449.121 
   18750     289.9972    246.05829   -3035.2763   -2603.9274   -476.44169    12453.828 
   18800    289.54495    246.08154   -3036.0513   -2605.3751   -446.42164    12458.123 
   18850     289.2243    245.94564   -3031.5213   -2601.3221   -393.66081    12462.047 
   18900    300.88576    246.18869   -3039.6231   -2592.0783   -595.25064    12465.593 
   18950    290.45676    245.76278   -3025.4261   -2593.3936   -233.21808    12468.699 
   19000    292.03335    245.74769   -3024.9229   -2590.5455   -314.32991    12471.516 
   19050     299.9752    250.99713   -3033.2376   -2587.0473   -598.04805    12474.016 
   19100    304.96831    251.11201    -3037.067   -2583.4498   -707.55988    12476.058 
   19150    295.82249    250.70881   -3023.6271   -2583.6135   -295.09421    12477.601 
   19200    294.67883    250.61085   -3020.3618   -2582.0494   -161.42985    12478.828 
   19250    307.38806    250.91329    -3030.443   -2573.2265   -502.46984    12479.797 
   19300    299.40377     250.6229   -3020.7632   -2575.4228   -222.42824    12480.382 
   19350    311.33097    250.96528   -3032.1759   -2569.0946   -441.03002    12480.639 
   19400     305.4302    250.80589   -3026.8631   -2572.5588   -209.73299     12480.52 
   19450    309.61148    250.94448   -3031.4826    -2570.959   -234.17754    12480.093 
   19500    293.01016    250.28925   -3009.6417   -2573.8113    308.13798    12479.412 
   19550    296.12794    250.33996   -3011.3319   -2570.8641    191.18565    12478.698 
   19600    302.83546    250.49378   -3016.4594   -2566.0146   -50.109568     12477.94 
   19650     309.3411    250.72847   -3024.2824   -2564.1609   -288.30239    12476.991 
   19700    310.01236    250.74124   -3024.7081   -2563.5882   -278.57451    12475.724 
   19750    310.79352    250.71382   -3023.7939   -2561.5121    -253.4458     12474.14 
   19800    301.81108    250.40046   -3013.3488   -2564.4277    141.61713    12472.252 
   19850     305.5736    250.45299   -3015.0998   -2560.5822    237.58776    12470.255 
   19900    309.96823    250.70813   -3023.6043   -2562.5501    121.69829    12468.216 
   19950    305.15746    250.51998   -3017.3328   -2563.4342    293.54637    12466.076 
   20000    306.99478    250.50982    -3016.994   -2560.3625    235.49275    12463.928 
   20050    318.31202    255.90662   -3030.2206   -2556.7556   -106.89051    12461.717 
   20100    299.12289    255.28493   -3009.4976    -2564.575    481.09987    12459.327 
   20150    293.04181    255.00041   -3000.0135    -2564.136    601.31086    12457.032 
   20200    304.35714    255.44249   -3014.7497   -2562.0416    168.80317    12454.892 
   20250    295.32287    255.07289   -3002.4295   -2563.1591    535.57984    12452.743 
   20300     309.2372    255.62222   -3020.7407   -2560.7737    179.54375    12450.666 
   20350     309.8537      255.644   -3021.4666   -2560.5827    128.64751    12448.557 
   20400    311.43051    255.74395   -3024.7982    -2561.569    63.640207    12446.354 
   20450    304.94592    255.40895   -3013.6316   -2560.0477    336.78077    12444.056 
   20500    311.53552    255.64328   -3021.4426   -2558.0571     160.5007    12441.769 
   20550    313.89872    255.68736   -3022.9121   -2556.0115    90.027806    12439.425 
   20600    309.68071    255.63408   -3021.1362   -2560.5096    201.25071    12436.966 
   20650    299.31243    255.24572   -3008.1908   -2562.9862    629.51888    12434.487 
   20700    290.81079    254.90843   -2996.9476   -2564.3886    954.64031    12432.212 
   20750    304.18226    255.50275   -3016.7584   -2564.3104    464.60957    12430.267 
   20800    298.61828     255.1934   -3006.4467   -2562.2746    659.72931    12428.487 
   20850    306.92921    255.50972   -3016.9905   -2560.4566     495.3062    12426.896 
   20900    320.96764    256.03037   -3034.3455   -2556.9305    76.947768    12425.413 
   20950      312.031    255.72832   -3024.2773   -2560.1549    358.49649    12423.848 
   21000    308.01876    255.52504   -3017.5014   -2559.3469    500.02259    12422.327 
   21050    310.42378    260.60964   -3020.3214   -2558.5895    429.58094    12420.923 
   21100    295.42824    260.01751   -3000.5836   -2561.1564    939.96612    12419.668 
   21150    304.08534    260.41604   -3013.8679    -2561.564    598.98162    12418.761 
   21200    306.78248    260.60518   -3020.1728   -2563.8571    443.80898    12418.075 
   21250    309.92675    260.73524   -3024.5081   -2563.5155    386.79119    12417.507 
   21300    305.27376    260.57657   -3019.2189   -2565.1473    618.58471    12417.051 
   21350    297.10589    260.29104   -3009.7015    -2567.779    970.69837    12416.827 
   21400    298.36162    260.34295   -3011.4315   -2567.6412    915.97642    12417.005 
   21450    302.24359    260.44963   -3014.9876   -2565.4231    693.28911    12417.592 
   21500     302.9549    260.47838   -3015.9459   -2565.3235    625.18529    12418.458 
   21550    297.40038    260.22976   -3007.6585    -2565.298    794.52236    12419.581 
   21600    305.38652    260.65222   -3021.7408   -2567.5015     428.2319     12421.02 
   21650    301.93475    260.45594   -3015.1979   -2566.0929    544.88176    12422.621 
   21700     308.0138    260.64186   -3021.3953   -2563.2482    287.74614    12424.397 
   21750    308.58031    260.74709   -3024.9029   -2565.9131    156.38496    12426.241 
   21800    288.12112    260.02328   -3000.7761   -2572.2177      771.297    12428.118 
   21850    303.01443       260.68   -3022.6668   -2571.9558    183.13057    12430.249 
   21900    301.12778    260.68826    -3022.942   -2575.0372    109.11187    12432.417 
   21950    292.42709     260.3897     -3012.99   -2578.0268    361.47464    12434.551 
   22000    297.33274    260.47936   -3015.9787   -2573.7188    196.05667    12436.782 
   22050    312.54512    256.10527   -3036.8424   -2571.9552    -341.6901    12438.995 
   22100    292.56348    255.35106   -3011.7021   -2576.5361     323.3275    12440.965 
   22150    295.93817    255.54321   -3018.1071   -2577.9215    229.72708    12442.958 
   22200    294.46532    255.51162    -3017.054   -2579.0591    154.51106    12444.999 
   22250    316.48567    256.43142   -3047.7139   -2576.9655   -659.31977    12446.944 
   22300    309.13187    256.20905   -3040.3017   -2580.4914   -483.56568    12448.452 
   22350    287.08341    255.47976   -3015.9918    -2588.977    148.06667    12449.589 
   22400    293.66888    255.71979   -3023.9931   -2587.1829    -133.5308    12450.631 
   22450    293.91066    255.78949   -3026.3165   -2589.1466   -260.01194     12451.49 
   22500     298.5291    255.88023   -3029.3411   -2585.3017   -420.49347    12452.064 
   22550    300.94501    256.00187   -3033.3957   -2585.7628   -595.79694    12452.276 
   22600    305.43563    256.26774   -3042.2581   -2587.9457   -811.66868    12452.012 
   22650    308.30458    256.41112   -3047.0373   -2588.4576   -808.13408    12451.149 
   22700    289.34982    255.76342   -3025.4474   -2595.0615   -169.30705    12449.722 
   22750    282.27206    255.48216   -3016.0721   -2596.2138    40.377825    12448.013 
   22800    279.18843    255.47952   -3015.9839   -2600.7122    71.457253    12446.174 
   22850    285.05003    255.70348   -3023.4493    -2599.459   -131.65253    12444.217 
   22900    291.37289    255.99499   -3033.1665   -2599.7714     -362.803    12442.035 
   22950    296.16013    256.17243   -3039.0809   -2598.5652   -498.52364    12439.508 
   23000     290.6779    256.04452   -3034.8174   -2602.4561   -302.86403    12436.581 
   23050    289.47953    260.99524   -3033.1748   -2602.5959   -149.24832    12433.318 
   23100    290.24962    261.05165   -3035.0548   -2603.3305   -184.66327     12429.81 
   23150     294.4259    261.27545   -3042.5149   -2604.5787   -449.35652    12426.031 
   23200     290.5703    261.19827   -3039.9423    -2607.741   -308.04272    12421.855 
   23250    285.16988    261.04668   -3034.8894   -2610.7208   -63.323017     12417.36 
   23300    286.52173    261.02836   -3034.2787   -2608.0993    -90.68064    12412.669 
   23350    292.94259    261.34381   -3044.7935   -2609.0636   -387.69946    12407.755 
   23400    292.31691    261.27417   -3042.4725   -2607.6732   -346.46685    12402.492 
   23450    278.81449    260.77713   -3025.9045   -2611.1891    217.73804    12396.907 
   23500      288.204    261.20415   -3040.1383   -2611.4566  -0.32312226     12391.24 
   23550    300.45643    261.61296   -3053.7652   -2606.8591   -375.67653    12385.409 
   23600    290.93679    261.28923   -3042.9745   -2610.2281    4.3722694    12379.243 
   23650    286.44807    261.18608   -3039.5359   -2613.4661    302.58208    12372.918 
   23700    292.76842    261.43394   -3047.7979   -2612.3271    132.44479    12366.568 
   23750    294.74379    261.50069   -3050.0229   -2611.6139    37.300281     12360.12 
   23800    300.62848    261.80182   -3060.0606   -2612.8985   -111.61487    12353.528 
   23850    298.51298    261.69718   -3056.5728   -2612.5573    132.93862    12346.738 
   23900    291.25761    261.41116   -3047.0386   -2613.8149    555.64934    12339.859 
   23950    285.13614    261.10318   -3036.7728   -2612.6544     937.7512    12333.141 
   24000    303.58672    261.84378   -3061.4595   -2609.8973     292.4552     12326.73 
   24050    301.01345    256.72264   -3057.4213   -2609.6866    306.13223    12320.362 
   24100    296.35331     256.6321   -3054.4034   -2613.6003    427.80552    12313.989 
   24150    293.17776    256.43951   -3047.9837    -2611.904    595.77888     12307.69 
   24200    296.31335    256.54556   -3051.5187   -2610.7751     635.4544    12301.534 
   24250    304.17719     256.8515   -3061.7165    -2609.276    447.47894     12295.55 
   24300    289.18899    256.34033   -3044.6776   -2614.5309    1010.8398    12289.677 
   24350    278.40813     255.9826   -3032.7535   -2618.6425    1463.9532    12284.202 
   24400    291.41756     256.4769     -3049.23   -2615.7685    1116.6335    12279.331 
   24450    290.81045    256.52857   -3050.9524    -2618.394    1200.5822    12274.935 
   24500    294.78129    256.62153   -3054.0509   -2615.5861    1102.3159    12271.052 
   24550    304.51918    256.93252   -3064.4172    -2611.468     777.4487    12267.612 
   24600    310.77705    257.10556   -3070.1852   -2607.9279    628.36758     12264.45 
   24650    305.82859    256.94466   -3064.8219   -2609.9251    841.64375    12261.499 
   24700    305.00451    256.90142   -3063.3805   -2609.7094    914.62477    12258.853 
   24750    306.07432    256.82693   -3060.8978   -2605.6354    911.17445    12256.565 
   24800     304.0969    256.78898   -3059.6328   -2607.3117    997.87537    12254.637 
   24850    305.03984    257.00796    -3066.932   -2613.2084    964.37913    12253.094 
   24900    294.49488    256.53086   -3051.0288     -2612.99    1359.5305    12251.979 
   24950    291.91522    256.21425   -3040.4751   -2606.2733     1550.897    12251.472 
   25000    301.22716    256.67962   -3055.9874   -2607.9348    1177.8968    12251.663 
   25050    301.34576    256.66141   -3055.3802   -2607.1512    1144.8571    12252.393 
   25100    299.84753    256.52558   -3050.8525    -2604.852    1269.1613    12253.629 
   25150    293.19372    256.21146    -3040.382   -2604.2786    1559.7501    12255.447 
   25200    291.04867    256.09268   -3036.4226   -2603.5098    1616.4696    12258.015 
   25250    313.91532    256.89057   -3063.0191   -2596.0938    806.36446    12261.321 
   25300    305.95358    256.53121   -3051.0404   -2595.9576    1006.4335     12265.01 
   25350    306.59374     256.5571   -3051.9034   -2595.8684    1049.7477    12269.112 
   25400    296.01067    256.16814   -3038.9379   -2598.6445    1422.9447    12273.724 
   25450    310.15347     256.6775   -3055.9167   -2594.5869    903.74315    12278.975 
   25500     320.9659    256.97148   -3065.7162   -2588.3037    592.57626     12284.64 
   25550    307.91287    256.44483   -3048.1611    -2590.164     1045.293     12290.58 
   25600    302.13904    256.20036   -3040.0121   -2590.6032     1229.063    12296.994 
   25650    311.28685    256.52077   -3050.6923   -2587.6767    844.78002    12303.973 
   25700    317.92644    256.79287   -3059.7622   -2586.8707    502.88829    12311.339 
   25750    310.37489    256.46248   -3048.7494   -2587.0903    725.01511    12318.922 
   25800    309.20665     256.3559   -3045.1966   -2585.2751    733.71823    12326.787 
   25850    310.14901     256.2883   -3042.9433   -2581.6202    620.87391    12334.995 
   25900    308.65027    256.21075   -3040.3582   -2581.2643    665.12208    12343.474 
   25950    302.64928    255.92208   -3030.7361   -2580.5683    806.52913    12352.249 
   26000    310.12435    256.12993   -3037.6643   -2576.3779     496.0819    12361.363 
   26050    303.03053    250.93605   -3031.2017   -2580.4668    632.35446     12370.69 
   26100    305.83506    250.97459   -3032.4862   -2577.5798    541.29356    12380.261 
   26150    304.71997    250.83629   -3027.8764   -2574.6285    580.32446    12390.052 
   26200    307.32058     250.9592   -3031.9733   -2574.8572    335.96738    12400.063 
   26250     309.6899    251.10826   -3036.9421   -2576.3019    78.030032    12410.161 
   26300    307.11206    250.96004   -3032.0013   -2575.1954    111.54543    12420.219 
   26350    313.23306    251.11772   -3037.2574   -2571.3469    -200.5155    12430.235 
   26400    317.68651    251.26427   -3042.1425   -2569.6079   -415.35262    12440.042 
   26450    308.09908    250.93367   -3031.1224   -2572.8483   -110.05126    12449.518 
   26500    306.11331    250.81892   -3027.2972   -2571.9769   -164.59459    12458.807 
   26550    302.17287    250.69817   -3023.2722    -2573.813   -309.16846    12467.902 
   26600    298.86377    250.49901   -3016.6335   -2572.0963   -238.74438    12476.708 
   26650    290.72584    250.15256   -3005.0853   -2572.6527    32.596631    12485.283 
   26700    294.91942    250.26772   -3008.9241   -2570.2538   -189.39771    12493.749 
   26750    305.60127    250.68874    -3022.958   -2568.3992   -613.76588    12501.968 
   26800    303.36762    250.53428   -3017.8094   -2566.5731   -564.58168    12509.748 
   26850    303.54777    250.41869   -3013.9564   -2562.4521   -579.55153    12517.079 
   26900     298.0797    250.18455   -3006.1515   -2562.7805   -403.51623     12523.94 
   26950    289.88476    250.09038   -3003.0126    -2571.831   -276.34649     12530.44 
   27000    295.86689    250.29674   -3009.8915   -2569.8119   -502.19978    12536.647 
   27050    301.36876    250.47143   -3015.7142    -2567.451   -721.07242    12542.443 
   27100    302.15797    250.45823   -3015.2743   -2565.8373   -714.77018    12547.696 
   27150    295.22132    250.13847   -3004.6155   -2565.4962   -411.84371    12552.422 
   27200    298.89659     250.2638   -3008.7933   -2564.2073   -493.32717    12556.736 
   27250    307.80436    250.58735   -3019.5782   -2561.7426   -820.49801    12560.608 
   27300    306.38275     250.5892   -3019.6399   -2563.9188   -879.70901    12563.897 
   27350     305.3039    250.49466   -3016.4886   -2562.3722   -842.59062    12566.536 
   27400    305.46893    250.45132   -3015.0438    -2560.682    -865.5707    12568.544 
   27450    312.99207    250.69468    -3023.156   -2557.6041   -1114.1134    12569.881 
   27500    309.32973    250.52718   -3017.5726   -2557.4681   -985.63561    12570.439 
   27550    302.81951    250.27542   -3009.1808   -2558.7597   -766.62609     12570.28 
   27600     298.5005    250.09389   -3003.1298   -2559.1329    -607.2201    12569.517 
   27650    291.56746    249.85829   -2995.2763   -2561.5918   -384.26161    12568.247 
   27700    297.89792    250.09827   -3003.2758   -2560.1752   -564.03365    12566.574 
   27750    301.74725    250.24484   -3008.1612   -2559.3351   -673.12118    12564.428 
   27800    304.89239    250.31381   -3010.4602   -2556.9559   -764.18793    12561.729 
   27850    299.96797    250.12604   -3004.2013   -2558.0216   -583.58331    12558.448 
   27900    305.37143    250.38536   -3012.8452   -2558.6283   -734.76047    12554.648 
   27950    307.51771    250.45281   -3015.0935   -2557.6843    -719.1609     12550.27 
   28000     295.3599    250.04717   -3001.5724   -2562.2469    -285.0903    12545.334 
   28050    305.94476    255.40754   -3013.5847   -2558.5151   -578.84713    12540.024 
   28100    300.97515     255.2402   -3008.0066   -2560.3288   -299.01368    12534.266 
   28150    294.66801    254.91837   -2997.2791   -2558.9828    93.500906    12528.187 
   28200     300.6309    255.03632   -3001.2105   -2554.0448    6.5095748    12521.976 
   28250    310.00105    255.40089   -3013.3631     -2552.26   -268.93922    12515.611 
   28300    311.35283    255.49358   -3016.4527    -2553.339   -224.33898    12508.957 
   28350    295.11376    254.87145   -2995.7148   -2556.7555     417.8419    12502.045 
   28400    293.02066     254.8313   -2994.3768   -2558.5307    549.40204    12495.192 
   28450    307.01125    255.31228   -3010.4093   -2553.7533    198.44861    12488.478 
   28500    287.69271    254.52471   -2984.1569   -2556.2358    867.83492    12481.798 
   28550     305.7742    255.15651   -3005.2168   -2550.4009    355.75273    12475.373 
   28600    323.63036    255.87947   -3029.3158   -2547.9402   -225.26656    12469.003 
   28650    322.01649    255.80203   -3026.7343   -2547.7592   -27.612852     12462.38 
   28700    313.71325    255.43294   -3014.4312   -2547.8065    412.41759    12455.603 
   28750     309.1131    255.17483   -3005.8276   -2546.0453    674.06135    12448.888 
   28800    305.56558    255.06382   -3002.1274   -2547.6217    848.21166    12442.383 
   28850    300.97503    254.96822   -2998.9407   -2551.2632    991.44004    12436.206 
   28900    315.25881    255.53757   -3017.9191   -2548.9955    579.29504    12430.406 
   28950    312.00567    255.34379   -3011.4598    -2547.375    806.45071    12424.838 
   29000    315.72905    255.47567   -3015.8557   -2546.2327    824.74016    12419.553 
   29050    313.88425    250.42771   -3014.2571    -2547.378    950.00402    12414.578 
   29100    303.38431    250.00429   -3000.1431   -2548.8819    1323.1384     12409.97 
   29150    313.18494    250.34445   -3011.4816   -2545.6427    975.42111    12405.914 
   29200    337.68248    251.29191   -3043.0638   -2540.7867    199.08371    12402.233 
   29250    317.54944    250.41888   -3013.9628   -2541.6321    952.75276    12398.585 
   29300    306.34287    249.98946   -2999.6485   -2543.9867    1361.2487    12395.267 
   29350    310.77993    250.15156    -3005.052   -2542.7904    1199.9931    12392.534 
   29400    322.39927    250.60025   -3020.0085    -2540.464    767.31863    12390.311 
   29450    321.83239    250.54507   -3018.1689   -2539.4676    818.60157    12388.374 
   29500    322.68418    250.59511   -3019.8369   -2539.8686    939.80103    12386.719 
   29550    317.00507    250.43455    -3014.485    -2542.964    1209.4804    12385.453 
   29600    310.53928    250.26064    -3008.688   -2546.7844    1424.6208    12384.716 
   29650    321.83887     250.7335   -3024.4499   -2545.7389    949.55331    12384.574 
   29700    320.42803    250.72304   -3024.1012   -2547.4888    859.35018    12384.836 
   29750    311.73748    250.41467   -3013.8223   -2550.1364    1088.5199    12385.448 
   29800    319.55379    250.76591   -3025.5302   -2550.2181    759.12586    12386.468 
   29850    309.94976    250.44197   -3014.7323   -2553.7055    1064.3392    12387.784 
   29900    310.69298    250.55751   -3018.5836   -2556.4513    1061.9723    12389.526 
   29950    323.69674    251.11233   -3037.0778   -2555.6034    447.57009    12391.694 
   30000    320.00696    251.12204   -3037.4015   -2561.4153    334.32348    12393.977 
   30050    299.86307    250.34195   -3011.3984   -2565.3748    913.84572    12396.345 
   30100     305.4047    250.64153   -3021.3845   -2567.1181    592.17728    12399.027 
   30150    303.27436     250.6122   -3020.4065   -2569.3089    542.90611    12401.926 
   30200    310.64705    250.84322   -3028.1073   -2566.0434    367.45236    12404.966 
   30250    302.88897    250.60879    -3020.293   -2569.7687    597.03859    12408.084 
   30300     302.2735    250.72801   -3024.2672   -2574.6582    525.63537    12411.392 
   30350    302.69986    250.74632   -3024.8772   -2574.6341    384.93769    12414.864 
   30400    310.49503    251.05711   -3035.2371   -2573.3992    71.533951     12418.39 
   30450    299.84509    250.81576    -3027.192   -2581.1951    290.41409    12421.848 
   30500    297.52812    250.68354   -3022.7847   -2580.2342    275.24474    12425.306 
   30550    302.94371    250.95879   -3031.9597   -2581.3539   -22.863011    12428.754 
   30600    292.01709    250.56949   -3018.9829   -2584.6296    258.15826    12432.076 
   30650    296.62234    250.67922   -3022.6406   -2581.4374    69.035492    12435.382 
   30700    304.14168    251.03364   -3034.4546   -2582.0669   -232.88443    12438.574 
   30750    295.02796    250.82741   -3027.5803   -2588.7486   -63.787474    12441.531 
   30800    307.77885    251.41183   -3047.0609   -2589.2632   -554.69446    12444.263 
   30850    279.31697    250.30928   -3010.3093   -2594.8465    363.06116    12446.628 
   30900     285.2977    250.64789   -3021.5962   -2597.2375     189.3919     12448.98 
   30950    286.82438    250.62321   -3020.7738   -2594.1443    94.499873    12451.331 
   31000    304.44958    251.33069   -3044.3563   -2591.5106   -634.26733     12453.55 
   31050    299.30417    246.09647    -3036.549   -2591.3567   -568.19508    12455.314 
   31100    292.85714    245.85695    -3028.565   -2592.9622   -285.13711    12456.597 
   31150    292.93569    245.88564   -3029.5213   -2593.8017   -257.53661    12457.555 
   31200    302.06494    246.26063    -3042.021   -2592.7223   -607.46483    12458.173 
   31250    291.11606     245.8049     -3026.83   -2593.8169   -302.47782    12458.331 
   31300    301.70186    246.25062   -3041.6874   -2592.9287   -631.87907    12458.105 
   31350    297.82349    246.13518   -3037.8393   -2594.8494   -495.32431    12457.385 
   31400     287.0488    245.70355   -3023.4517   -2596.4884   -84.707544     12456.24 
   31450     293.5036    245.94709   -3031.5695   -2595.0052   -221.80015    12454.846 
   31500    295.73999    246.07499   -3035.8329    -2595.942   -345.14535    12453.161 
   31550    295.30226    246.12382   -3037.4605   -2598.2208   -401.61211    12451.117 
   31600    296.92078    246.19626   -3039.8752   -2598.2281   -475.28044    12448.664 
   31650    303.49358    246.37487    -3045.829   -2594.4053   -619.16269    12445.764 
   31700    295.21234    246.04907   -3034.9689   -2595.8629   -353.08557    12442.382 
   31750    303.71181      246.385   -3046.1667   -2594.4184   -609.18095    12438.582 
   31800    300.92877    246.36381   -3045.4605   -2597.8517   -526.17982    12434.288 
   31850    290.79675    246.01759   -3033.9197   -2601.3816    -125.1141    12429.546 
   31900    291.45138    245.95777   -3031.9256   -2598.4138    65.901404    12424.552 
   31950    292.83112    246.10396   -3036.7985   -2601.2344    121.97133    12419.433 
   32000    301.92145    246.44146   -3048.0485   -2598.9632   -119.04065    12414.191 
   32050    287.02988    245.99844   -3033.2812    -2606.346     263.2427    12408.761 
   32100    291.78855    246.19777   -3039.9258   -2605.9124    84.814797    12403.278 
   32150    294.68388    246.20961   -3040.3202   -2602.0003   -9.4373875     12397.68 
   32200    303.18561    246.45011    -3048.337   -2597.3714   -265.09347    12391.888 
   32250    292.99761    246.08856   -3036.2852   -2600.4735    137.96004     12385.83 
   32300    291.02526    246.02618    -3034.206    -2601.328     348.6338    12379.657 
   32350    294.88314    246.21464   -3040.4881   -2601.8717    312.98989    12373.499 
   32400    295.87782    246.18276   -3039.4253   -2599.3295     430.1018    12367.359 
   32450    291.28708    246.01987   -3033.9958   -2600.7284    698.06704    12361.287 
   32500    298.21412    246.31217   -3043.7391   -2600.1682    499.73653    12355.415 
   32550    305.95803    246.57923   -3052.6409   -2597.5515    188.53273     12349.66 
   32600     312.0129    246.79718   -3059.9059   -2595.8103   -28.504333    12343.848 
   32650    312.90083    246.83187   -3061.0623    -2595.646    123.32376    12337.846 
   32700    299.90807    246.33799   -3044.5995    -2598.509    663.26664    12331.761 
   32750    320.61537    247.09325    -3069.775    -2592.884    71.922063    12325.799 
   32800    300.34373    246.31553   -3043.8511   -2597.1125    748.17587    12319.784 
   32850     303.7745    246.39945   -3046.6482   -2594.8067    697.70923    12313.941 
   32900    291.92035    245.95048   -3031.6827   -2597.4733    1114.7122     12308.36 
   32950    306.87618    246.58129   -3052.7096   -2596.2545    750.82608    12303.158 
   33000    294.36326    246.12673   -3037.5576   -2599.7145     1217.036    12298.268 
   33050    301.37308    251.40726   -3046.9088   -2598.6392    986.10843    12293.842 
   33100    300.20011    251.33861   -3044.6203   -2598.0954    1030.2666    12289.819 
   33150    311.13542     251.7074   -3056.9135   -2594.1231     767.9148    12286.182 
   33200    315.38551    251.97768   -3065.9227   -2596.8107    599.05303    12282.824 
   33250    308.64035     251.8425   -3061.4165   -2602.3374    872.82417    12279.659 
   33300    295.81641      251.307   -3043.5667   -2603.5622    1445.6979     12276.85 
   33350    304.47653    251.59876    -3053.292   -2600.4062    1175.7661     12274.64 
   33400    308.11016    251.70332   -3056.7773   -2598.4868    928.01864    12272.941 
   33450    309.69383     251.7568   -3058.5599   -2597.9138    881.67649    12271.597 
   33500    308.51981    251.74432   -3058.1439   -2599.2441    1028.3299    12270.586 
   33550    308.30187     251.6707     -3055.69   -2597.1144    1078.0629    12269.991 
   33600    316.86267    252.02299   -3067.4329   -2596.1237    789.85742    12269.817 
   33650    306.35255    251.60921   -3053.6402    -2597.964    1097.9734    12269.963 
   33700    294.68061    251.18177   -3039.3924   -2601.0774    1441.2943    12270.567 
   33750    307.37326    251.65457   -3055.1522   -2597.9577    1036.3818    12271.769 
   33800    311.90018    251.85199   -3061.7329    -2597.805    867.61177     12273.42 
   33850    308.61847    251.76025    -3058.675   -2599.6284    906.25616    12275.411 
   33900    322.01535    252.30912   -3076.9706   -2597.9972    383.62819    12277.718 
   33950    307.69502    251.76107   -3058.7023   -2601.0293    807.22088    12280.158 
   34000    299.78209    251.54291   -3051.4302   -2605.5271    999.72599     12282.89 
   34050    302.71703    251.68953   -3056.3178   -2606.0492    751.01121    12286.023 
   34100    299.32198    251.64527   -3054.8424   -2609.6237    769.60566    12289.422 
   34150    287.96001     251.2881   -3042.9368   -2614.6181    1139.2574    12293.133 
   34200    300.06906    251.72284   -3057.4279   -2611.0979    720.19674    12297.287 
   34250    296.98404    251.65754   -3055.2515   -2613.5102    694.23435    12301.734 
   34300    298.96368    251.75523   -3058.5075   -2613.8217    525.99841    12306.426 
   34350    302.24439    251.87585   -3062.5284   -2612.9627    338.55599    12311.264 
   34400    295.93468    251.63414   -3054.4715   -2614.2911    418.22445    12316.181 
   34450    310.68897    252.28207   -3076.0691   -2613.9428   -212.58022    12321.146 
   34500    292.86364    251.60515    -3053.505   -2617.8925    365.46278    12325.912 
   34550    286.42569    251.43287   -3047.7622   -2621.7257    562.80439    12330.729 
   34600    292.89949    251.69543   -3056.5142   -2620.8484    211.17902    12335.706 
   34650    290.30107    251.63706   -3054.5687   -2622.7679    150.38252    12340.686 
   34700    289.92256    251.53415   -3051.1383   -2619.9004    55.801872    12345.627 
   34750    297.70529    251.82646    -3060.882    -2618.068   -306.51226     12350.44 
   34800    297.78277    251.92087   -3064.0289   -2621.0996   -399.99632    12354.968 
   34850    295.48951    251.80027   -3060.0089   -2620.4906   -313.00996    12359.142 
   34900    280.85292    251.36216   -3045.4055    -2627.658    56.558071    12363.028 
   34950    286.57019    251.66652   -3055.5507   -2629.2992   -256.01218    12366.778 
   35000     287.6469    251.74002   -3058.0005   -2630.1475   -296.74219     12370.27 
   35050    271.55176    256.20433   -3040.1443   -2636.2316    230.44231    12373.515 
   35100    280.82734    256.52454   -3050.8181   -2633.1087   -191.77397    12376.736 
   35150    302.97822    257.32738   -3077.5794   -2626.9223   -1045.3694    12379.707 
   35200    291.22809    256.85069   -3061.6895   -2628.5098   -630.48611    12382.027 
   35250    281.84304    256.57393   -3052.4645   -2633.2443    -276.7672    12383.847 
   35300    283.11791    256.63389   -3054.4631   -2633.3466   -385.04276    12385.379 
   35350    288.96677    256.79119   -3059.7063   -2629.8902   -589.87943    12386.565 
   35400    282.51062    256.57906   -3052.6352    -2632.422   -341.47819    12387.316 
   35450     272.7466    256.22991   -3040.9971   -2635.3072    -65.61835    12387.759 
   35500    286.41852    256.71507   -3057.1691   -2631.1432    -548.7601        12388 
   35550    293.86968    256.88188   -3062.7294   -2625.6205   -731.40448    12387.841 
   35600    282.73793    256.48401   -3049.4671   -2628.9158   -326.38128    12387.162 
   35650    283.13003    256.51945   -3050.6485    -2629.514   -335.52487    12386.144 
   35700    282.30857    256.55252   -3051.7507   -2631.8381    -288.9206    12384.816 
   35750    271.26676    256.05836   -3035.2788   -2631.7901    212.65115    12383.225 
   35800    282.45338     256.4934     -3049.78    -2629.652   -31.908147    12381.581 
   35850    281.19832    256.48521   -3049.5071   -2631.2459   -23.925341    12379.824 
   35900    293.92701    256.94814   -3064.9379   -2627.7437   -503.81724    12377.883 
   35950    284.70827    256.66109   -3055.3698   -2631.8878   -228.52867     12375.56 
   36000    281.82058    256.43197   -3047.7323   -2628.5456   -90.989867    12372.965 
   36050    293.38223    256.81665   -3060.5549    -2624.171   -458.46184    12370.159 
   36100    281.61887    256.42292   -3047.4307    -2628.544   -122.29223    12366.999 
   36150    276.79167    256.20014   -3040.0048   -2628.2982    74.014381    12363.627 
   36200     283.9826    256.34721    -3044.907   -2622.5044   -122.59891     12360.15 
   36250    310.60392    257.37367   -3079.1225   -2617.1227   -944.93794    12356.431 
   36300    299.40577    256.83131   -3061.0438   -2615.7004   -442.98447    12352.127 
   36350    297.14789    256.69888   -3056.6293   -2614.6443   -144.38376    12347.399 
   36400     290.0936    256.38222   -3046.0741   -2614.5819    248.22549    12342.485 
   36450    293.73568     256.4555   -3048.5166    -2611.607    296.23766    12337.548 
   36500    282.75369     256.0335     -3034.45   -2613.8753    778.46339    12332.666 
   36550    294.07951    256.38032   -3046.0106   -2608.5896     570.4551    12328.026 
   36600    285.71474    255.98368   -3032.7892   -2607.8102    939.52511    12323.608 
   36650    289.44507    256.07923   -3035.9742   -2605.4466    924.78084    12319.555 
   36700    307.43006    256.70882   -3056.9606   -2599.6817    408.32732    12315.868 
   36750    303.59134    256.44847   -3048.2822   -2596.7131    616.08582    12312.319 
   36800    307.02768    256.53307   -3051.1022   -2594.4218    614.15769    12308.946 
   36850    312.89445    256.79688   -3059.8961   -2594.4893    484.95764    12305.774 
   36900    306.92563    256.62189    -3054.063   -2597.5344    695.70825    12302.742 
   36950    299.13647    256.30408   -3043.4695   -2598.5267    1007.5468    12299.968 
   37000    303.13472    256.33602    -3044.534    -2593.644    986.92352    12297.599 
   37050    310.28276     251.5774   -3052.5798   -2591.0577     811.0666    12295.635 
   37100    308.53357    251.34743   -3044.9145   -2585.9942    981.54717        12294 
   37150    308.78301    251.27555   -3042.5184    -2583.227    997.00377     12292.73 
   37200    309.78325    251.37734   -3045.9113   -2585.1322    928.84819    12291.853 
   37250    312.43134    251.48532   -3049.5108   -2584.7929    878.81796    12291.342 
   37300    323.80982    251.98717   -3066.2388   -2584.5963     578.3589    12291.124 
   37350    302.98461    251.17448   -3039.1494   -2588.4828    1373.6348    12291.138 
   37400    301.01908    251.09355   -3036.4515   -2588.7085    1428.7903    12291.734 
   37450    311.24857    251.47736   -3049.2453   -2586.2866    1110.9846    12292.943 
   37500    307.56125    251.26819    -3042.273   -2584.7989    1254.9157    12294.648 
   37550    316.93148    251.67975   -3055.9916   -2584.5801    864.23418    12296.863 
   37600    312.93099    251.46398   -3048.7995   -2583.3384    920.06467    12299.433 
   37650    314.48213    251.54166   -3051.3887   -2583.6203    804.63092    12302.348 
   37700    314.37088    251.47279    -3049.093   -2581.4901    734.14957    12305.572 
   37750    315.71945    251.62673   -3054.2242   -2584.6154     611.2688    12309.048 
   37800    309.75753    251.45834   -3048.6114   -2587.8706    831.92397    12312.738 
   37850    301.26482    251.14934   -3038.3114   -2590.2028    1004.2813    12316.762 
   37900    313.66737     251.6256   -3054.1865   -2587.6301    468.75105     12321.16 
   37950    325.30263    251.99685   -3066.5618   -2582.6987   -44.810917    12325.667 
   38000    315.79858    251.60354   -3053.4512   -2583.7247    191.55279    12330.061 
   38050    301.48112    256.12559   -3037.5198   -2589.0895    725.64555    12334.428 
   38100    294.33068    255.81886   -3027.2955   -2589.5009    1068.8805     12339.07 
   38150    313.58151     256.6076   -3053.5865   -2587.1578    375.21825    12344.124 
   38200    303.26569    256.16009   -3038.6695   -2587.5848    675.60905     12349.34 
   38250    313.71005    256.58745    -3052.915    -2586.295    245.40061    12354.766 
   38300    307.14677    256.28077   -3042.6922   -2585.8346    336.09972    12360.247 
   38350    302.06454    256.16956   -3038.9852   -2589.6871    431.77113    12365.778 
   38400     289.8105    255.72181   -3024.0603   -2592.9891    792.15916     12371.46 
   38450    301.17395     256.2779   -3042.5967   -2594.6233     340.6294    12377.415 
   38500    291.60191    255.96839   -3032.2797    -2598.544    527.23672    12383.496 
   38550    299.77857    256.25439    -3041.813   -2595.9151     129.4419     12389.71 
   38600    299.50298    256.20931   -3040.3103   -2594.8223    -33.19076     12395.91 
   38650    303.97229    256.35617   -3045.2058   -2593.0701   -165.08122    12401.973 
   38700    300.98145    256.20332   -3040.1107   -2592.4236   -62.370214    12407.838 
   38750    288.74188      255.785   -3026.1666   -2596.6849    184.78932    12413.557 
   38800    288.25591    255.80019   -3026.6731   -2597.9143    44.229565    12419.247 
   38850     295.1279    256.02182   -3034.0608   -2595.0804   -181.21359     12424.84 
   38900    282.51833    255.59533   -3019.8442   -2599.6196    213.00118    12430.252 
   38950    299.40473    256.30859   -3043.6196   -2598.2777   -423.17453    12435.577 
   39000    293.07912    256.10121   -3036.7071   -2600.7741   -423.31637    12440.591 
   39050    290.54926     260.9684   -3032.2799   -2600.1099   -468.95487    12445.248 
   39100    274.62146    260.24396   -3008.1319   -2599.6533    161.73587    12449.573 
   39150    278.87698    260.44807   -3014.9358   -2600.1274    63.754679    12453.845 
   39200    284.47967    260.71199   -3023.7329    -2600.591   -268.56871    12458.064 
   39250    298.83042    261.22127   -3040.7089   -2596.2213   -882.75517     12462.01 
   39300    299.74425    261.22362   -3040.7872   -2594.9404   -924.40647    12465.361 
   39350    286.41399    260.69749   -3023.2498   -2597.2307   -433.70339    12468.107 
   39400     294.8916     261.0039   -3033.4635   -2594.8346   -691.17055    12470.446 
   39450    296.41176    261.07456   -3035.8187   -2594.9287    -718.3948    12472.289 
   39500    287.55245    260.68631   -3022.8771   -2595.1646   -345.39345    12473.631 
   39550    284.80601    260.62842   -3020.9474     -2597.32   -265.43501    12474.661 
   39600    291.14384    260.83239   -3027.7464    -2594.692   -490.61349    12475.419 
   39650    276.59424    260.24454   -3008.1513   -2596.7383   -4.6544596    12475.836 
   39700    287.50786    260.66273   -3022.0911   -2594.4449   -328.32607    12476.094 
   39750    299.35485    261.05827   -3035.2758   -2590.0082   -699.69578    12476.055 
   39800    296.75436    260.87145   -3029.0482   -2587.6486   -505.99762     12475.52 
   39850    290.33627    260.54789    -3018.263   -2586.4098   -84.257343    12474.584 
   39900    287.11064    260.44411   -3014.8035   -2587.7482    69.303169    12473.472 
   39950    296.74048    260.76783   -3025.5945   -2584.2155   -201.10779    12472.239 
   40000    291.47886    260.63759   -3021.2531   -2587.7004    21.901947    12470.802 
   40050    293.39227     260.7002     -3023.34   -2586.9413    84.048481    12469.237 
   40100    280.25423    260.03855    -3001.285   -2584.4281    574.98159    12467.631 
   40150    293.32499    260.54535   -3018.1785   -2581.8798    79.812075    12466.165 
   40200    293.99706    260.43655   -3014.5516   -2577.2532    61.339077    12464.668 
   40250    294.01719    260.49728   -3016.5761   -2579.2478    120.30064    12463.072 
   40300    299.43532    260.64571   -3021.5236   -2576.1362    64.515767     12461.41 
   40350    293.78774     260.3008   -3010.0267   -2573.0397    473.06329    12459.701 
   40400     280.9654    259.77712   -2992.5707   -2574.6559    1021.2101    12458.157 
   40450    286.69976    259.94539   -2998.1797   -2571.7356    756.60331    12457.029 
   40500    307.19852    260.68081   -3022.6938   -2565.7592   -28.176702    12456.181 
   40550    308.74587    260.59148   -3019.7159   -2560.4798   -41.252221    12455.244 
   40600    308.68272    260.63347   -3021.1157   -2561.9736    40.118549    12454.142 
   40650    303.70151    260.37551    -3012.517   -2560.7841    348.90721    12452.954 
   40700    306.46984    260.43403   -3014.4675   -2558.6169    328.48623    12451.817 
   40750    300.37083     260.1738   -3005.7933   -2559.0144    543.31086    12450.751 
   40800    297.63589    259.94285   -2998.0949   -2555.3841    596.94306    12449.869 
   40850    305.21025    260.24792   -3008.2641    -2554.287    345.10147    12449.181 
   40900    287.27036    259.50438   -2983.4792   -2556.1863    1040.1968    12448.625 
   40950    305.24831    260.18391   -3006.1304   -2552.0967    528.62845    12448.461 
   41000    324.41038    260.89373   -3029.7911   -2547.2553   -107.20441    12448.481 
   41050    304.93928    265.15412   -3005.1372   -2551.5631     708.7092    12448.384 
   41100    299.11046    264.94021    -2998.007   -2553.1028    991.35505    12448.551 
   41150    313.64464     265.4835   -3016.1168   -2549.5942    463.55617    12449.146 
   41200    310.09394    265.22319   -3007.4396   -2546.1983    651.23826    12449.935 
   41250    305.66858    265.04265   -3001.4218   -2546.7629    876.12418    12450.991 
   41300    316.58033    265.45021    -3015.007   -2544.1177    527.33082    12452.403 
   41350    304.92981    264.95119   -2998.3729   -2544.8129    900.72629    12454.067 
   41400    306.78157    264.96334   -2998.7779   -2542.4636     906.3215    12456.108 
   41450    308.94571     265.1271   -3004.2368   -2544.7034    810.15677    12458.565 
   41500     312.4692    265.24796   -3008.2655   -2543.4912    650.02946    12461.379 
   41550     311.2202    265.24559   -3008.1862   -2545.2697    623.77675    12464.474 
   41600    302.57173    264.93763   -2997.9212   -2547.8686    783.80181    12467.852 
   41650    309.29466    265.11013   -3003.6711   -2543.6188    402.25643    12471.529 
   41700    301.26497     264.6469   -2988.2299   -2540.1211    644.82724    12475.377 
   41750    297.64569    264.57866   -2985.9554     -2543.23    763.83454    12479.495 
   41800    291.54999    264.40854   -2980.2847   -2546.6262    892.14342     12483.96 
   41850    301.28555    264.69037   -2989.6791   -2541.5397    485.94284    12488.802 
   41900    303.38923    264.81325   -2993.7751   -2542.5066    335.81088    12493.844 
   41950     312.2328    265.16651   -3005.5503   -2541.1276   -90.059548    12498.979 
   42000    320.67813       265.51   -3016.9999   -2540.0155   -442.70274    12503.952 
   42050      284.978     259.2104   -2973.6799   -2549.7968    756.77519    12508.665 
   42100    297.03602    259.69205   -2989.7351   -2547.9165    281.93583    12513.608 
   42150    303.41923     259.9213   -2997.3766   -2546.0635   -49.157945    12518.632 
   42200    300.01885    259.69778   -2989.9262   -2543.6708    66.654363    12523.543 
   42250    301.08494    259.92322   -2997.4406   -2549.5996   -90.869479    12528.362 
   42300    294.73466    259.64505   -2988.1683   -2549.7729    72.846178    12533.047 
   42350     297.8024    259.79695   -2993.2316   -2550.2732   -47.603013    12537.654 
   42400     298.4356    259.75533   -2991.8443   -2547.9439   -87.533784    12542.148 
   42450    299.89321    259.78063   -2992.6876   -2546.6191   -161.39485    12546.493 
   42500    296.91477     259.6819   -2989.3968   -2547.7586   -64.567701    12550.643 
   42550    293.53062    259.50404   -2983.4679   -2546.8633   -2.7262048    12554.654 
   42600    309.35693    260.06694   -3002.2314   -2542.0864   -691.46427    12558.505 
   42650    309.72171    260.01791   -3000.5971   -2539.9095   -764.69084    12561.876 
   42700    296.25866    259.57073   -2985.6908   -2545.0285   -342.85909    12564.722 
   42750    307.64594    259.95792   -2998.5973   -2540.9973   -673.59441    12567.194 
   42800    298.49083    259.65897   -2988.6325     -2544.65   -429.72793    12569.198 
   42850    290.82926    259.42572   -2980.8574   -2548.2709   -158.21946     12570.83 
   42900     304.3875     259.9163     -2997.21   -2544.4567   -529.31733    12572.205 
   42950     292.2708    259.43929   -2981.3097   -2546.5791   -51.400839     12573.22 
   43000    284.40131    259.20043   -2973.3475   -2550.3222    224.14696    12574.066 
   43050    294.04434    264.55534   -2985.1779   -2547.8092   -172.59517    12574.891 
   43100    307.56723    265.13771   -3004.5903   -2547.1074   -746.25085    12575.503 
   43150    304.35289    265.01863   -3000.6211   -2547.9192   -576.17653    12575.611 
   43200    290.88305    264.61101   -2987.0337   -2554.3672   -78.733352    12575.296 
   43250    292.99417     264.6143   -2987.1433   -2551.3367   -79.667881     12574.81 
   43300    300.95624     264.9297   -2997.6565    -2550.007    -320.2999    12574.162 
   43350    301.52398     265.0055   -3000.1833   -2551.6892   -326.12535    12573.225 
   43400     300.4402    265.00484   -3000.1613   -2553.2793   -219.87575    12571.987 
   43450    294.13883    264.72772    -2990.924   -2553.4148    91.958752     12570.52 
   43500    279.04264    264.12697   -2970.8991   -2555.8443    714.50882    12569.018 
   43550      278.873    264.11741   -2970.5804    -2555.778    786.48876    12567.791 
   43600    296.42595    264.85662   -2995.2206   -2554.3095    137.48736     12566.87 
   43650    304.76516    265.07863   -3002.6209   -2549.3059   -264.43622    12565.945 
   43700    296.14233    264.72739   -2990.9129   -2550.4237   -61.633323    12564.777 
   43750    292.58064    264.53124   -2984.3746   -2549.1831    106.12055    12563.467 
   43800    289.57167    264.40209   -2980.0697   -2549.3538    157.14334    12562.101 
   43850    295.11232    264.57162   -2985.7207   -2546.7634   -44.929852    12560.684 
   43900    288.52523    264.26192   -2975.3975   -2546.2381    193.76429    12559.166 
   43950    295.27535    264.52542   -2984.1808   -2544.9811   -73.136788    12557.606 
   44000    304.62301    264.85332   -2995.1107   -2542.0071   -445.55058    12555.905 
[...]
   89400    289.72329    246.94989   -3064.9965    -2634.055   -189.71266    12345.348 
   89450    284.14538    246.73507   -3057.8357    -2635.191    -69.95725     12348.17 
   89500    295.73991    247.08338   -3069.4461   -2629.5554   -535.46723    12350.766 
   89550    298.57144    247.17746    -3072.582   -2628.4796   -756.52135    12352.928 
   89600    294.99996    246.96772   -3065.5905   -2626.8004   -612.56114    12354.541 
   89650     292.4288    246.76952    -3058.984   -2624.0183   -311.85623    12355.658 
   89700    289.17029    246.52092   -3050.6974   -2620.5785   -13.038039    12356.445 
   89750    298.81129    246.87637   -3062.5457   -2618.0865   -262.77526    12357.037 
   89800     302.3164    246.95687   -3065.2291   -2615.5564   -424.53385    12357.338 
   89850    301.12848    246.92726    -3064.242   -2616.3362   -366.36069     12357.24 
   89900    292.70545    246.53854   -3051.2845   -2615.9073   -27.893418    12356.798 
   89950    309.87665    247.15442   -3071.8141   -2610.8961   -649.48724    12356.128 
   90000    318.19718    247.43341   -3081.1138   -2607.8196   -880.75101    12354.935 
   90050    297.85664    246.53334   -3051.1114   -2608.0722   -116.25963    12353.144 
   90100    309.31072    246.94412   -3064.8041   -2604.7279   -336.69578    12351.031 
   90150    301.61369     246.6539     -3055.13   -2606.5025     7.014821     12348.61 
   90200    302.76365    246.65349   -3055.1164   -2604.7784    83.090381    12346.014 
   90250    304.37379    246.61217   -3053.7391   -2601.0061    168.76056    12343.284 
   90300    300.29154    246.41484   -3047.1614   -2600.5005    370.92797    12340.482 
   90350    307.95955    246.68522   -3056.1742   -2598.1077    162.08912    12337.683 
   90400    307.29862    246.56502   -3052.1675   -2595.0841    251.08583    12334.844 
   90450    304.63125    246.42069   -3047.3564   -2594.2405    425.90729    12331.986 
   90500    307.10954     246.5023   -3050.0768   -2593.2746    413.18884    12329.179 
   90550    307.15318    246.52416   -3050.8054   -2593.9384    442.27947    12326.441 
   90600    309.80307    246.59657   -3053.2191   -2592.4105    489.32978    12323.769 
   90650    301.54636    246.25162   -3041.7207   -2593.1933    856.80615    12321.213 
   90700    304.52991    246.48585   -3049.5282    -2596.563    681.71924    12318.927 
   90750     308.4769    246.49649    -3049.883    -2591.047    569.67676    12316.866 
   90800    316.25821    246.67345   -3055.7816   -2585.3714    425.22694    12314.954 
   90850     314.5395    246.64722   -3054.9073   -2587.0536    546.56857    12313.117 
   90900    305.03276    246.27968   -3042.6559   -2588.9428    869.46841    12311.421 
   90950    315.53498    246.60796   -3053.5986   -2584.2643     492.6862        12310 
   91000    311.06315    246.57139   -3052.3798   -2589.6969    561.80006    12308.711 
   91050     306.0095    251.36213   -3045.4044   -2590.2385    769.59399    12307.571 
   91100    323.56423    252.01322   -3067.1075   -2585.8302    271.48555    12306.646 
   91150    306.27892    251.31218   -3043.7393   -2588.1727    809.96796    12305.805 
   91200    316.74012    251.61979   -3053.9929   -2582.8659    455.19966    12305.207 
   91250    311.98544    251.51512    -3050.504   -2586.4493    632.40835    12304.733 
   91300    314.94961    251.65861    -3055.287   -2586.8233    636.92892    12304.426 
   91350    320.85676    251.84041    -3061.347   -2584.0969    480.10293    12304.319 
   91400    311.73054    251.55765   -3051.9216    -2588.246    748.32489    12304.353 
   91450    318.88302    251.69367   -3056.4556   -2582.1413    546.72515    12304.609 
   91500    310.55025    251.47041   -3049.0137   -2587.0938    734.62609    12305.044 
   91550    304.47249    251.37685    -3045.895   -2593.0152    980.48706    12305.729 
   91600    289.47484    250.81242   -3027.0805   -2596.5086    1501.1366    12306.835 
   91650    313.50641    251.78424   -3059.4746   -2593.1576    566.40655    12308.543 
   91700     307.4284    251.62491   -3054.1636   -2596.8872     675.8664    12310.488 
   91750    308.11892    251.66881   -3055.6269   -2597.3233    656.11735    12312.645 
   91800    308.86079    251.70024   -3056.6747   -2597.2676      541.699     12315.04 
   91850    292.60186    251.10903   -3036.9677   -2601.7446    1002.6701    12317.621 
   91900    296.68085    251.13848   -3037.9492   -2596.6589    802.55307    12320.591 
   91950    306.80071    251.58662   -3052.8873   -2596.5445    310.70859    12323.878 
   92000    302.04495    251.40473   -3046.8243   -2597.5553    419.29871    12327.229 
   92050    310.40167    256.78821    -3059.607    -2597.908     49.63076    12330.643 
   92100    311.31723    256.83438   -3061.1461   -2598.0853   -79.566598    12333.968 
   92150    302.85262    256.50085   -3050.0282   -2599.5579    230.06653    12337.143 
   92200     287.0332    255.89095   -3029.6983   -2602.7582    715.32385    12340.362 
   92250    316.83157    256.94466   -3064.8219   -2593.5589   -314.80733    12343.751 
   92300    309.58047    256.82067   -3060.6889   -2600.2114   -228.78594    12346.917 
   92350    298.63123     256.4349     -3047.83   -2603.6387    56.218341    12349.828 
   92400    295.47043    256.44447   -3048.1491   -2608.6593    90.345642    12352.636 
   92450    293.57704    256.35153    -3045.051   -2608.3774    171.14345    12355.386 
   92500    299.24058    256.63674   -3054.5579   -2609.4603   0.25221055    12358.093 
   92550    289.05679    256.28917   -3042.9722   -2613.0221    305.01147    12360.725 
   92600       288.61    256.27201   -3042.4002   -2613.1147    237.13477    12363.375 
   92650    289.70591    256.42171   -3047.3904   -2616.4748     27.80408    12366.042 
   92700    286.90033    256.33397   -3044.4658   -2617.7233    59.651682    12368.624 
   92750    288.17385     256.3249   -3044.1633   -2615.5266    143.16822    12371.117 
   92800    286.65568    256.17548   -3039.1825   -2612.8039    252.09292    12373.597 
   92850    296.46513    256.62255    -3054.085   -2613.1156   -85.236589    12376.049 
   92900    282.95217    256.13166    -3037.722   -2616.8521    362.93879    12378.388 
   92950    290.56612    256.38064   -3046.0215   -2613.8264    43.565119    12380.776 
   93000    290.61848    256.39508   -3046.5027   -2614.2297   -96.278548    12383.078 
   93050     280.2283    256.02948   -3034.3161   -2617.4977    130.15283    12385.229 
   93100     293.5914    256.59404   -3053.1346   -2616.4397   -348.71975    12387.295 
   93150    299.16925    256.74688   -3058.2293   -2613.2377   -463.78228    12389.076 
   93200    289.95605    256.46537   -3048.8456   -2617.5579   -174.38147    12390.494 
   93250    288.62667    256.40484   -3046.8279   -2617.5176   -174.38683    12391.672 
   93300    293.27999    256.59057   -3053.0189   -2616.7871   -389.99823     12392.62 
   93350    295.92549    256.67119   -3055.7063   -2615.5395   -481.78715    12393.235 
   93400    296.14202    256.65902   -3055.3005   -2614.8117   -454.22909    12393.447 
   93450    282.57829    256.15991   -3038.6636   -2618.3498     -30.4365    12393.297 
   93500    287.79447    256.37843   -3045.9477   -2617.8752   -230.82163    12392.965 
   93550    290.58741    256.41924    -3047.308   -2615.0813   -328.60248    12392.394 
   93600     288.3204    256.35548   -3045.1825   -2616.3278   -282.02179    12391.511 
   93650    280.87706    256.18219   -3039.4064   -2621.6231   -81.770042    12390.335 
   93700    284.94347    256.22554   -3040.8514   -2617.0196   -134.49705    12388.971 
   93750    300.12571     256.8571   -3061.9034   -2615.4891   -631.37543    12387.372 
   93800    299.75832    256.86769   -3062.2562   -2616.3884   -650.76006    12385.304 
   93850    304.19857    256.89651   -3063.2171   -2610.7447   -685.89831    12382.721 
   93900    302.76132    256.78388   -3059.4627   -2609.1282   -502.44433    12379.619 
   93950    304.18535    256.89529   -3063.1763   -2610.7237   -440.26357    12376.078 
   94000     293.9017    256.49289    -3049.763   -2612.6065   -12.610742    12372.167 
   94050    298.34271    256.64444   -3054.8145   -2611.0524   -94.450792    12368.055 
   94100    284.48129    255.99906   -3033.3021   -2610.1578     459.2897     12363.79 
   94150    284.85351    256.00194   -3033.3979   -2609.6999    510.33423    12359.602 
   94200    303.52985    256.62462   -3054.1541   -2602.6764   -55.987417    12355.525 
   94250    308.52499    256.68241   -3056.0803   -2597.1727   -102.87582    12351.278 
   94300    306.55169    256.57719   -3052.5729   -2596.6005    120.36778    12346.827 
   94350    291.52841    256.03763   -3034.5878   -2600.9614    759.59015    12342.322 
   94400    298.17585    256.22519   -3040.8396   -2597.3256    661.60302    12338.033 
   94450    312.56766    256.67068   -3055.6892   -2590.7685    158.82007    12333.944 
   94500     317.8519    256.86132   -3062.0441   -2589.2635   -21.309007    12329.794 
   94550    315.14862    256.72348   -3057.4492   -2588.6895    204.43426    12325.486 
   94600    299.31443    256.12125   -3037.3751   -2592.1676    817.26507    12321.174 
   94650    314.42854    256.70509   -3056.8363   -2589.1477    402.49105    12317.081 
   94700    304.74951    256.31852   -3043.9507   -2590.6589    843.46724    12313.103 
   94750    305.55664    256.24418   -3041.4727   -2586.9804    994.59661    12309.425 
   94800    317.82786    256.60862   -3053.6207   -2580.8759    735.78434    12306.118 
   94850    314.35498    256.43925   -3047.9751   -2580.3959    962.76493    12303.099 
   94900     321.3727    256.68204    -3056.068   -2578.0504    694.88112    12300.435 
   94950    317.35086    256.42929   -3047.6431   -2575.6078    851.57166    12298.028 
   95000    306.97946    256.07757   -3035.9191   -2579.3104    1274.7992    12295.965 
   95050    307.20394    261.18669   -3039.5563   -2582.6138     1243.567    12294.445 
   95100    317.83131    261.59989   -3053.3298   -2580.5798    915.85303    12293.474 
   95150    298.55895    260.83047   -3027.6823   -2583.5985    1591.4831    12292.965 
   95200    306.77972     261.0674   -3035.5799   -2579.2683    1437.0957     12293.16 
   95250    315.81996    261.28614   -3042.8714   -2573.1131    1267.3409    12294.047 
   95300    326.15603    261.65367   -3055.1224     -2569.99    953.76339    12295.505 
   95350    322.61446     261.4707   -3049.0235   -2569.1589    1092.5189    12297.393 
   95400    299.90031     260.5412   -3018.0399   -2571.9609    1872.4861    12299.817 
   95450    309.00144    260.84798   -3028.2661   -2568.6499    1540.0577    12303.114 
   95500    322.05677    261.40493    -3046.831    -2567.796    1049.3233    12307.149 
   95550    314.46994    261.20727   -3040.2425   -2572.4922    1210.1283    12311.723 
   95600    307.72077    260.93929   -3031.3096   -2573.5983    1306.6727    12316.885 
   95650    302.71803    260.70985   -3023.6616   -2573.3915    1432.7541    12322.688 
   95700    304.03689    260.81386   -3027.1285   -2574.8967    1325.0914    12329.195 
   95750    316.98085    261.28694    -3042.898    -2571.413     867.4924    12336.343 
   95800    303.28257    260.81925   -3027.3082   -2576.1984    1255.4831     12343.97 
   95850    313.74403    261.11761   -3037.2537   -2570.5832    793.59061    12352.177 
   95900    308.02021    260.89953   -3029.9842   -2571.8275    793.05478     12360.78 
   95950    298.81529    260.60436   -3020.1452   -2575.6801    948.59808    12369.766 
   96000    298.65002    260.55712   -3018.5705   -2574.3512    770.75124    12379.217 
   96050    299.45252    260.56656   -3018.8854   -2573.4725    579.05494    12389.046 
   96100    316.22239    261.27424   -3042.4747   -2572.1179   -79.323716    12399.098 
   96150    309.03317    261.01434   -3033.8112   -2574.1478    97.259123    12409.104 
   96200    293.12798     260.3527   -3011.7567   -2575.7511    539.64438    12419.146 
   96250    300.42803    260.65324   -3021.7745   -2574.9106    239.27258    12429.385 
   96300    281.29652    260.01695   -3000.5649   -2582.1576    710.64909    12439.784 
   96350    300.66743    260.78169   -3026.0564   -2578.8364   -80.968677    12450.462 
   96400    299.17917    260.68956   -3022.9853   -2577.9789   -189.02169    12461.082 
   96450     295.6569    260.55031   -3018.3437   -2578.5765   -184.74673    12471.542 
   96500    304.57714    260.99117    -3033.039   -2580.0036   -676.53252    12481.801 
   96550    303.69007    260.96105   -3032.0348   -2580.3189   -830.27013    12491.629 
   96600    290.34858     260.3621   -3012.0701   -2580.1986   -451.53342    12500.962 
   96650    287.41693    260.22958   -3007.6526   -2580.1417    -380.1628    12509.941 
   96700    288.88663    260.26954   -3008.9847   -2579.2878   -566.10973    12518.628 
   96750    300.92473    260.70079   -3023.3596   -2575.7569   -1046.5216    12526.902 
   96800    284.43531    260.03129   -3001.0431   -2577.9672   -469.98403     12534.57 
   96850    282.09281    259.96381   -2998.7937   -2579.2021    -365.9793    12541.859 
   96900    285.94663    260.12502   -3004.1674   -2578.8434   -591.90456    12548.849 
   96950    292.37581    260.48547   -3016.1824   -2581.2956   -1018.0727    12555.408 
   97000    301.75047     260.8445   -3028.1501   -2579.3192   -1493.4687    12561.284 
   97050    298.43649    255.74174   -3024.7248   -2580.8231   -1588.6537    12566.231 
   97100    294.57717    255.58749   -3019.5829   -2581.4216   -1430.7361    12570.156 
   97150    279.79168    255.04227    -3001.409   -2585.2401   -804.72773    12573.169 
   97200    287.61739    255.34511   -3011.5035   -2583.6945   -1074.0968    12575.548 
   97250    296.02503    255.63304   -3021.1015   -2580.7867   -1425.9202    12577.172 
   97300    285.08916    255.13023   -3004.3409   -2580.2924   -1053.0439    12577.884 
   97350    294.07749    255.46541   -3015.5136   -2578.0956   -1234.9727    12577.811 
   97400    284.09047    255.11782   -3003.9274   -2581.3644   -867.76744    12576.934 
   97450    287.40231    255.24529   -3008.1763   -2580.6871    -957.6157    12575.378 
   97500    288.28556    255.23467   -3007.8225   -2579.0196   -912.03487    12573.129 
   97550    279.13505     254.9157     -2997.19   -2581.9977   -574.61283    12570.232 
   97600    293.61653    255.48995   -3016.3317   -2579.5993   -1101.0487    12566.798 
   97650    293.68168    255.52282   -3017.4273    -2580.598   -1121.7261    12562.608 
   97700    292.19433    255.34482   -3011.4939    -2576.877   -903.56492    12557.621 
   97750    291.59995    255.30068   -3010.0226   -2576.2898   -778.77499    12551.948 
   97800    302.35419    255.68545   -3022.8483   -2573.1194   -1082.9902    12545.628 
   97850    298.46312    255.57599   -3019.1998   -2575.2585   -897.13979    12538.532 
   97900    301.71256    255.64525   -3021.5084   -2572.7339   -875.07471    12530.744 
   97950    296.57588    255.42967   -3014.3223   -2573.1882   -558.39291     12522.29 
   98000    288.12455    255.05433   -3001.8111   -2573.2477    -107.5159    12513.326 
   98050     296.2346    260.49862   -3016.6206   -2575.9941   -295.53047    12504.091 
   98100    291.64305    260.36516   -3012.1719    -2578.375   -41.466507    12494.547 
   98150    288.30813    260.11119   -3003.7062   -2574.8697    257.73643    12484.815 
   98200    295.47771    260.35406   -3011.8019   -2572.3012    223.99206    12475.041 
   98250    282.56954    259.83205   -2994.4018    -2574.101    794.48495    12465.278 
   98300    301.72453    260.52263    -3017.421   -2568.6287    267.34045    12455.738 
   98350    308.02988    260.66203   -3022.0676   -2563.8965    184.47568    12446.221 
   98400    313.17057    260.85563    -3028.521   -2562.7036    75.972971    12436.612 
   98450    312.94274    260.73197    -3024.399   -2558.9204    157.63181    12426.893 
   98500    324.20036    261.13135   -3037.7115   -2555.4881   -3.6356686    12417.061 
   98550    305.95268    260.43242   -3014.4141   -2559.3327    851.20587    12407.121 
   98600    296.10115    259.99381   -2999.7936   -2559.3656    1415.1961    12397.479 
   98650     312.7545    260.52164   -3017.3881   -2552.1895    964.76054    12388.416 
   98700    318.88663    260.71178    -3023.726   -2549.4063    884.86562    12379.754 
   98750    303.33728     260.1009   -3003.3634   -2552.1722    1543.4144    12371.468 
   98800    312.70716    260.47684   -3015.8948   -2550.7666    1361.0186    12363.818 
   98850     310.9014    260.34377   -3011.4589   -2549.0166    1504.1331    12356.813 
   98900    323.99918    260.90212   -3030.0707   -2548.1465    1093.1106    12350.465 
   98950    339.09166    261.46586    -3048.862   -2544.4888    688.32065    12344.561 
   99000    319.29482    260.70599    -3023.533   -2548.6062    1529.0259    12338.949 
   99050    304.00525    260.18198   -3006.0661   -2553.8813    2146.4425    12334.026 
   99100    315.62607    260.56056   -3018.6853   -2549.2154    1748.9765     12330.11 
   99150    311.61076    260.34855   -3011.6185   -2548.1211    1864.4812    12327.075 
   99200    312.61479    260.41339   -3013.7796   -2548.7888    1857.5282    12324.924 
   99250    314.95512    260.43456   -3014.4853   -2546.0135    1869.4709    12323.672 
   99300    321.16247    260.61329   -3020.4431   -2542.7382    1686.3061    12323.323 
   99350     323.9825    260.65376   -3021.7921   -2539.8926    1559.9042    12323.793 
   99400    319.02188    260.46121   -3015.3737   -2540.8528    1767.1303    12325.009 
   99450    307.38343    260.02282   -3000.7606    -2543.551     2257.624    12327.108 
   99500    322.34453    260.72807   -3024.2689   -2544.8058    1716.2935    12330.286 
   99550    331.35548    261.07418   -3035.8059   -2542.9397     1263.381    12334.326 
   99600    322.23985     260.7903   -3026.3435   -2547.0361     1443.639    12338.996 
   99650    313.76634    260.50499   -3016.8331   -2550.1295    1637.4608    12344.382 
   99700    327.81926    261.02972   -3034.3238   -2546.7175    992.16613    12350.566 
   99750    323.92636    260.87958   -3029.3192   -2547.5033    910.38998    12357.246 
   99800    319.40655    260.74926   -3024.9754   -2549.8823    892.23026    12364.339 
   99850     322.7232    260.93141   -3031.0469   -2551.0206    754.43256    12371.845 
   99900    306.06273    260.33886   -3011.2954   -2556.0503    1250.7627     12379.74 
   99950    315.01325    260.77218   -3025.7394    -2557.181    776.16436    12388.206 
  100000    309.43712    260.63685   -3021.2282   -2560.9639     796.4212    12397.066 
Loop time of 27.3247 on 1 procs for 100000 steps with 500 atoms

Performance: 316.198 ns/day, 0.076 hours/ns, 3659.699 timesteps/s
99.9% CPU use with 1 MPI tasks x 1 OpenMP threads

MPI task timing breakdown:
Section |  min time  |  avg time  |  max time  |%varavg| %total
---------------------------------------------------------------
Pair    | 21.726     | 21.726     | 21.726     |   0.0 | 79.51
Bond    | 0.0060503  | 0.0060503  | 0.0060503  |   0.0 |  0.02
Neigh   | 0.57041    | 0.57041    | 0.57041    |   0.0 |  2.09
Comm    | 0.78528    | 0.78528    | 0.78528    |   0.0 |  2.87
Output  | 0.018376   | 0.018376   | 0.018376   |   0.0 |  0.07
Modify  | 2.7514     | 2.7514     | 2.7514     |   0.0 | 10.07
Other   |            | 1.467      |            |       |  5.37

Nlocal:    500 ave 500 max 500 min
Histogram: 1 0 0 0 0 0 0 0 0 0
Nghost:    1588 ave 1588 max 1588 min
Histogram: 1 0 0 0 0 0 0 0 0 0
Neighs:    14369 ave 14369 max 14369 min
Histogram: 1 0 0 0 0 0 0 0 0 0

Total # of neighbors = 14369
Ave neighs/atom = 28.738
Ave special neighs/atom = 0
Neighbor list builds = 654
Dangerous builds = 0

write_data      ${walker}/final_restart_file
write_data      10/final_restart_file

quit
