LAMMPS (19 May 2017)
Processor partition = 14
  using 1 OpenMP thread(s) per MPI task
# gREM variables
variable        lambda world 1000 1005 1010 1015 1020 1025 1030 1035 1040 1045 1050 1055 1060 1065 1070 1075
variable        walker world 0 1 2 3 4 5 6 7 8 9 10 11 12 13 14 15
variable        replica world 4 9 1 7 0 12 3 5 8 13 14 6 15 11 2 10

variable        T0 equal 300.0
variable        press equal 0.0

units           real
atom_style      full
pair_style      lj/cut 5.0

# LJ particles
read_data       ${walker}/restart_file
read_data       14/restart_file
  orthogonal box = (1.07444 1.07444 1.07444) to (23.9256 23.9256 23.9256)
  1 by 1 by 1 MPI processor grid
  reading atoms ...
  500 atoms
  reading velocities ...
  500 velocities
  0 = max # of 1-2 neighbors
  0 = max # of 1-3 neighbors
  0 = max # of 1-4 neighbors
  1 = max # of special neighbors

#dump            dump all xyz 1000 ${walker}/dump.xyz

fix             fxnpt all npt temp ${T0} ${T0} 1000.0 iso ${press} ${press} 10000.0
fix             fxnpt all npt temp 300 ${T0} 1000.0 iso ${press} ${press} 10000.0
fix             fxnpt all npt temp 300 300 1000.0 iso ${press} ${press} 10000.0
fix             fxnpt all npt temp 300 300 1000.0 iso 0 ${press} 10000.0
fix             fxnpt all npt temp 300 300 1000.0 iso 0 0 10000.0
fix             fxgREM all grem ${lambda} -.03 -30000 fxnpt
fix             fxgREM all grem 1070 -.03 -30000 fxnpt
thermo_modify   press fxgREM_press

thermo          50
thermo_style    custom step temp f_fxgREM pe etotal press vol
WARNING: New thermo_style command, previous thermo_modify settings will be lost (../output.cpp:705)
timestep        1.0

temper/grem     100000 1000 ${lambda} fxgREM fxnpt 10294 98392 ${walker}
temper/grem     100000 1000 1070 fxgREM fxnpt 10294 98392 ${walker}
temper/grem     100000 1000 1070 fxgREM fxnpt 10294 98392 14
Neighbor list info ...
  update every 1 steps, delay 10 steps, check yes
  max neighbors/atom: 2000, page size: 100000
  master list distance cutoff = 7
  ghost atom cutoff = 7
  binsize = 3.5, bins = 7 7 7
  1 neighbor lists, perpetual/occasional/extra = 1 0 0
  (1) pair lj/cut, perpetual
      attributes: half, newton on
      pair build: half/bin/newton
      stencil: half/bin/3d/newton
      bin: standard
Per MPI rank memory allocation (min/avg/max) = 5.722 | 5.722 | 5.722 Mbytes
Step Temp f_fxgREM PotEng TotEng Press Volume 
       0    293.11918    265.01695   -3167.2317   -2731.2391    1347.8595    11932.245 
      50    284.97858    264.77833   -3159.2777   -2735.3937    1560.9825    11932.554 
     100    284.08322    264.73648   -3157.8827   -2735.3305    1626.7615    11933.561 
     150    273.97744    264.40051   -3146.6835   -2739.1628    2001.0164    11935.345 
     200    270.14334    264.25298   -3141.7661   -2739.9483    2095.6618    11938.051 
     250    277.16939    264.44909   -3148.3029   -2736.0344    1707.8688    11941.728 
     300    265.29317    264.01213   -3133.7377   -2739.1342     2053.027     11946.25 
     350    261.06501    263.77403   -3125.8009   -2737.4865    2262.5544    11951.739 
     400    280.54429    264.50318   -3150.1062   -2732.8178    1545.4752    11958.283 
     450    278.82728    264.38383   -3146.1277   -2731.3932    1603.7189    11965.592 
     500    276.44665    264.24514   -3141.5047   -2730.3112     1660.129    11973.644 
     550     279.8997     264.3022   -3143.4065   -2727.0769    1438.6377    11982.471 
     600    284.48074    264.43063   -3147.6878   -2724.5443    1189.3401    11991.949 
     650    270.51759    263.85697   -3128.5658   -2726.1914    1536.8845     12002.02 
     700    275.46772     263.8763     -3129.21   -2719.4727    1330.1852     12012.76 
     750    270.00757    263.63527   -3121.1757   -2719.5599    1458.6194    12024.124 
     800    271.72231    263.62547   -3120.8489   -2716.6825     1359.864    12036.161 
     850    270.15647    263.57169   -3119.0564   -2717.2191    1345.1077    12048.841 
     900    275.70587    263.66811   -3122.2703   -2712.1788    1103.8066    12062.132 
     950    278.26407    263.66864   -3122.2881   -2708.3914    913.12698    12075.906 
    1000    273.29347    263.38533   -3112.8445   -2706.3412    1018.6024     12090.09 
    1050    279.04652    263.58213   -3119.4042   -2704.3436    776.36258    12104.698 
    1100    273.23084    263.29688    -3109.896   -2703.4859    885.61115     12119.64 
    1150    273.14352    263.16132   -3105.3773    -2699.097    790.54262    12134.938 
    1200    270.69029    263.06567   -3102.1888   -2699.5575    676.69555    12150.563 
    1250    277.69776     263.2572   -3108.5735   -2695.5191    322.72978    12166.425 
    1300    269.33922    262.85794   -3095.2647    -2694.643    561.65668     12182.38 
    1350    280.89546    263.19605   -3106.5348   -2688.7241    59.311364    12198.469 
    1400    282.02371    263.18692   -3106.2306   -2686.7417   -168.50941    12214.486 
    1450    277.84047    262.95275    -3098.425   -2685.1583   -120.40612    12230.281 
    1500    265.98497    262.30484   -3076.8281   -2681.1956    236.03314    12245.893 
    1550    276.95513    262.64627   -3088.2091   -2676.2593   -143.35916    12261.439 
    1600    261.79854    262.04235   -3068.0784   -2678.6729    276.85969    12276.822 
    1650    267.33982    262.26534   -3075.5113   -2677.8636   -68.863644    12292.144 
    1700    276.70431    262.64422   -3088.1406    -2676.564   -675.90763    12307.277 
    1750    286.28432     262.9295   -3097.6501   -2671.8239   -1163.7373     12321.88 
    1800    279.93489    262.59757   -3086.5856   -2670.2036   -992.34513    12335.705 
    1850    271.33694    262.24344   -3074.7815   -2671.1884   -779.06646    12348.816 
    1900    270.10602    262.20882   -3073.6272    -2671.865    -772.6654    12361.311 
    1950     267.2382     261.9788     -3065.96   -2668.4635   -720.74189    12373.229 
    2000    279.63789    262.35957   -3078.6523   -2662.7122   -1245.3472    12384.551 
    2050    272.73853    262.00409   -3066.8032   -2661.1253   -1024.6838    12395.057 
    2100    261.81173    261.54326    -3051.442   -2662.0169   -597.45878     12404.84 
    2150    261.45841    261.38248   -3046.0828   -2657.1832   -494.86544    12414.129 
    2200    267.50779    261.63189   -3054.3962   -2656.4987   -736.22967    12422.952 
    2250    268.32937    261.58079   -3052.6931   -2653.5735   -907.60579    12431.216 
    2300    278.23138    261.85922   -3061.9741    -2648.126   -1344.5865    12438.792 
    2350    264.75289    261.29213    -3043.071   -2649.2711   -898.10383    12445.518 
    2400    276.39172    261.65488   -3055.1627   -2644.0509   -1256.2907     12451.54 
    2450    268.79572    261.21695   -3040.5651   -2640.7518   -994.46322    12456.754 
    2500    263.70681    260.96679   -3032.2265   -2639.9826   -800.39058    12461.265 
    2550     285.1156    261.71872   -3057.2907   -2633.2028    -1409.085     12465.12 
    2600    266.73979    260.94555   -3031.5184   -2634.7632    -659.7927    12468.129 
    2650    279.74701    261.37046   -3045.6821   -2629.5797   -971.08252    12470.553 
    2700    284.19276    261.45335   -3048.4448   -2625.7296   -1128.4103    12472.324 
    2750    282.50366    261.34309   -3044.7698    -2624.567   -1039.8746    12473.335 
    2800     274.9057    260.98743   -3032.9144    -2624.013   -692.81661    12473.658 
    2850    279.04699    261.09184   -3036.3946   -2621.3334    -756.1162    12473.453 
    2900    279.89875    261.22665   -3040.8884   -2624.5602   -809.14275    12472.699 
    2950     285.3974    261.34537   -3044.8458   -2620.3388   -850.07428    12471.366 
    3000    269.78773    260.61482    -3020.494   -2619.2052   -177.10338    12469.509 
    3050    277.43096    265.86999   -3028.9997   -2616.3422   -461.67127    12467.391 
    3100    282.50383    266.01872   -3033.9573   -2613.7542   -689.87921    12464.945 
    3150    291.88843    266.21492   -3040.4975   -2606.3356   -858.01644    12462.026 
    3200    279.68696     265.6499   -3021.6634   -2605.6502   -305.17186    12458.589 
    3250     293.3573    266.16388    -3038.796   -2602.4492   -583.66065    12454.845 
    3300    295.62438    266.23062   -3041.0206   -2601.3018   -578.66429    12450.721 
    3350    287.96911    265.93121   -3031.0405   -2602.7082   -217.82551    12446.214 
    3400    284.63849    265.71772   -3023.9239   -2600.5457    26.251998    12441.502 
    3450    292.76524     266.0243   -3034.1435   -2598.6774   -144.98667    12436.713 
    3500     281.1704    265.45673   -3015.2244   -2597.0047     380.9157    12431.832 
    3550    289.89065    265.73184   -3024.3946   -2593.2042    105.63417    12427.049 
    3600    299.75124    266.02332   -3034.1106   -2588.2533   -197.55179    12422.242 
    3650    291.52344    265.66134   -3022.0448   -2588.4257    223.38624    12417.296 
    3700    298.82604    265.84252   -3028.0841    -2583.603    223.30153    12412.388 
    3750    290.70917    265.48639   -3016.2131   -2583.8053    691.64164    12407.565 
    3800    295.41218    265.66511   -3022.1704   -2582.7671    628.86878     12403.02 
    3850    307.57173    266.11942    -3037.314   -2579.8243    152.59782    12398.737 
    3900    315.42554     266.3902   -3046.3401   -2577.1685   -131.41067    12394.454 
    3950    291.62802    265.48062   -3016.0205   -2582.2459    851.86309    12390.097 
    4000     277.0601    264.93913   -2997.9709    -2585.865    1523.0554    12386.126 
    4050    303.63235    260.80271   -3026.7571   -2575.1269    756.26056    12382.847 
    4100    302.91731     260.7465   -3024.8833   -2574.3168    762.81888    12379.954 
    4150    297.79947    260.45541   -3015.1804   -2572.2262    988.88639    12377.369 
    4200    312.44232    260.84451   -3028.1503    -2563.416    531.00446    12375.187 
    4250    318.06436    261.14621   -3038.2069   -2565.1103    339.14435    12373.211 
    4300    302.88041    260.44404   -3014.8014   -2564.2897    973.89172    12371.364 
    4350    305.12686    260.53522   -3017.8406   -2563.9875    957.18956    12369.902 
    4400    306.10486    260.59789   -3019.9296   -2564.6218    1009.9399     12368.86 
    4450    300.11203    260.38079    -3012.693   -2566.2991    1288.3048    12368.282 
    4500    310.25971    260.82156   -3027.3853   -2565.8974    1028.9513    12368.266 
    4550      312.336    260.80131   -3026.7102   -2562.1341    955.64869    12368.728 
    4600    321.79499    261.12113   -3037.3709   -2558.7252    566.90305     12369.57 
    4650    309.85813    260.68605   -3022.8683   -2561.9778    942.14888     12370.64 
    4700    311.49319    260.80064   -3026.6879   -2563.3654    988.83031    12372.081 
    4750    292.88766    260.04698   -3001.5658   -2565.9176    1551.9548    12373.989 
    4800    312.77181    260.79649   -3026.5497   -2561.3253    835.39328    12376.541 
    4850    312.76608    260.67332   -3022.4439   -2557.2281    891.52445     12379.49 
    4900    312.73495    260.64702   -3021.5674   -2556.3979    940.84375    12382.798 
    4950    309.40898    260.49548    -3016.516   -2556.2936    1142.0754    12386.484 
    5000    292.73266    259.79144   -2993.0479   -2557.6303    1750.3003      12390.7 
    5050    304.25048    265.26496   -3008.8321   -2556.2826     1191.761    12395.696 
    5100    309.67327    265.41098   -3013.6993   -2553.0838    832.63282     12401.24 
    5150    321.13638    265.86419   -3028.8062   -2551.1402    375.81586    12407.085 
    5200    301.64182    265.05496    -3001.832   -2553.1627    1061.0392    12413.081 
    5250    300.50934    265.02458   -3000.8194   -2553.8345    1064.0733     12419.48 
    5300     310.5197     265.3864   -3012.8799   -2551.0054    679.11952    12426.303 
    5350     299.4323     264.9335   -2997.7833   -2552.4004     1022.172     12433.42 
    5400    302.44933     265.1122     -3003.74   -2553.8695    782.24221    12440.942 
    5450    311.60959    265.49724   -3016.5748   -2553.0791    408.57019    12448.745 
    5500    301.50582    265.03757   -3001.2524   -2552.7853    793.89403    12456.687 
    5550    303.98386    265.10676   -3003.5588   -2551.4058    574.11015    12464.909 
    5600    319.94313     265.7705   -3025.6833   -2549.7921   -148.12548     12473.28 
    5650     295.1742    264.80216   -2993.4055   -2554.3562    676.39878     12481.51 
    5700    289.83312    264.48885   -2982.9617   -2551.8569    875.20344    12489.928 
    5750    306.02598    265.20209   -3006.7364    -2551.546    102.14523    12498.643 
    5800    303.94124    265.15071   -3005.0238   -2552.9342   -55.947528    12507.314 
    5850    306.69755    265.27497   -3009.1656   -2552.9763   -240.57861    12515.782 
    5900    294.38607    264.75929   -2991.9762   -2554.0992    162.22433     12523.99 
    5950    293.78269    264.68943   -2989.6477   -2552.6682    129.39048    12532.119 
    6000    295.50186    264.64216   -2988.0721   -2548.5355   -10.943603     12540.16 
    6050    297.60797    264.77518   -2992.5059   -2549.8366   -181.05273    12548.051 
    6100    307.41211    265.30063   -3010.0211   -2552.7689   -644.58791    12555.687 
    6150    300.94468    264.87385    -2995.795   -2548.1626   -393.27948    12562.847 
    6200    300.93556    264.83701   -2994.5671   -2546.9482   -394.95051    12569.607 
    6250    293.44601    264.57261   -2985.7538   -2549.2751   -217.00761    12576.007 
    6300    283.28519    264.25839   -2975.2797   -2553.9145     30.71739    12582.136 
    6350     278.4904    264.04626   -2968.2088   -2553.9754    55.471595    12588.126 
    6400    296.22806    264.79494   -2993.1647   -2552.5479   -631.92385    12593.965 
    6450    294.94144     264.6859   -2989.5301    -2550.827   -575.44423    12599.354 
    6500    295.43952    264.67465   -2989.1551   -2549.7112   -470.69809    12604.255 
    6550    294.26507    264.60437   -2986.8123   -2549.1154   -423.40935    12608.761 
    6600     295.5113    264.64384   -2988.1279   -2548.5772   -611.19641    12612.872 
    6650    299.26298    264.76108   -2992.0361   -2546.9051   -880.00941    12616.484 
    6700    302.18693    264.83712   -2994.5707   -2545.0906   -966.17969    12619.457 
    6750    292.35454     264.4668   -2982.2266   -2547.3714   -639.16114    12621.767 
    6800    296.75426    264.65982   -2988.6607   -2547.2613   -793.72224    12623.539 
    6850    280.90338      264.008   -2966.9332   -2549.1107   -298.31537    12624.789 
    6900    287.96879    264.32497    -2977.499   -2549.1673    -516.9877    12625.703 
    6950    290.33961    264.49768    -2983.256   -2551.3978   -558.71526    12626.223 
    7000    285.94469    264.29932    -2976.644    -2551.323   -409.79765    12626.333 
    7050    300.86292    264.83827   -2994.6088   -2547.0981   -884.37679    12626.048 
    7100    289.18413    264.30531   -2976.8436   -2546.7041   -392.10308    12625.201 
    7150    285.44238    264.14268   -2971.4226   -2546.8487   -235.04819     12623.99 
    7200    286.07788    264.11702   -2970.5674   -2545.0482   -223.62673    12622.535 
    7250     294.7021    264.39404   -2979.8013   -2541.4542   -404.74464     12620.85 
    7300    302.85744    264.63003   -2987.6677   -2537.1903   -619.43509    12618.827 
    7350    296.74517    264.30076   -2976.6919    -2535.306   -359.67634    12616.363 
    7400    292.30082    264.06804   -2968.9346   -2534.1593   -188.04825    12613.602 
    7450    313.26225    264.90763   -2996.9211   -2530.9672   -848.59503    12610.577 
    7500    298.97125    264.40381   -2980.1271     -2535.43   -355.72673    12607.048 
    7550    300.43955    264.41089   -2980.3628   -2533.4818   -315.49765     12603.19 
    7600    301.94879    264.36742   -2978.9138   -2529.7879   -240.93075    12599.061 
    7650    294.41417    264.03186   -2967.7286   -2529.8099    45.272804    12594.738 
    7700    304.64156    264.44422   -2981.4739   -2528.3426   -242.08926    12590.312 
    7750    290.42346    263.77427   -2959.1423   -2527.1594    386.63091    12585.741 
    7800    316.14334    264.76241   -2992.0804   -2521.8411   -300.73625    12581.228 
    7850    306.51712    264.36263   -2978.7542   -2522.8332    99.808421    12576.525 
    7900    309.67697    264.46041   -2982.0136   -2521.3925    85.282118    12571.759 
    7950    314.11106    264.58217   -2986.0724    -2518.856    31.783701    12566.971 
    8000    313.23988    264.63211   -2987.7371   -2521.8165    163.86284    12562.118 
    8050    300.14408    264.07783   -2969.2611   -2522.8195    650.65905    12557.308 
    8100    301.64853    264.15385   -2971.7949   -2523.1155    606.08999    12552.753 
    8150    301.64578    264.04858   -2968.2859   -2519.6107    658.18048    12548.471 
    8200    306.44851     264.2589   -2975.2967   -2519.4777     496.6057    12544.473 
    8250    306.41206    264.34732   -2978.2439   -2522.4792    419.56649    12540.686 
    8300    309.83202    264.41922   -2980.6407   -2519.7891    432.87819    12537.066 
    8350    306.14582    264.17002   -2972.3339   -2516.9652    705.67311    12533.625 
    8400     318.1038    264.51787   -2983.9289   -2510.7736      366.092    12530.454 
    8450    323.38629    264.68579   -2989.5262   -2508.5136    238.16906    12527.411 
    8500    316.08554    264.42615   -2980.8718   -2510.7185    543.86644    12524.422 
    8550      324.302    264.68261   -2989.4202   -2507.0455    389.09956    12521.607 
    8600    315.03411    264.37364   -2979.1212   -2510.5318    739.53802    12518.956 
    8650    319.21393    264.57347   -2985.7822   -2510.9757    581.48874    12516.602 
    8700    328.16375    264.93432   -2997.8107    -2509.692    261.15095    12514.466 
    8750     312.3353    264.31293   -2977.0978   -2512.5227    793.26797    12512.425 
    8800    323.95616    264.87407   -2995.8024   -2513.9421    393.28973     12510.66 
    8850    311.14576    264.31638   -2977.2126   -2514.4069    893.42221    12509.082 
    8900    301.82284     263.8903   -2963.0099   -2514.0713    1259.4152     12507.91 
    8950    316.99929    264.51972   -2983.9908   -2512.4783    627.40679    12507.292 
    9000    306.25125     264.0944   -2969.8135    -2514.288    1000.0318    12506.972 
    9050    304.56609    264.09419   -2969.8063   -2516.7873    1045.3257    12507.073 
    9100    327.44685    265.01211   -3000.4035   -2513.3511    252.14487    12507.625 
    9150    313.06903    264.50527   -2983.5091   -2517.8427    781.24396    12508.298 
    9200    303.70655    264.27013    -2975.671   -2523.9305    1094.5294    12509.267 
    9250    319.92243    264.98492   -2999.4973    -2523.637    383.45602    12510.704 
    9300    324.22892    265.13572   -3004.5241   -2522.2582    168.85374    12512.263 
    9350    308.85612    264.52349   -2984.1165   -2524.7164    645.30228     12513.83 
    9400    315.74306    264.92212    -2997.404   -2527.7601    314.65649    12515.587 
    9450    307.66884    264.66079   -2988.6931    -2531.059    474.22594    12517.443 
    9500     305.6277     264.5322   -2984.4066   -2529.8086     466.0312    12519.452 
    9550     320.3222     265.1819   -3006.0635   -2529.6085   -47.164829    12521.561 
    9600     303.6813    264.58922   -2986.3072   -2534.6043     526.4315     12523.58 
    9650    304.81577    264.72756   -2990.9185   -2537.5282    436.01826    12525.737 
    9700    297.08626    264.48635   -2982.8785   -2540.9852    614.84219    12528.047 
    9750    279.04352     263.8115   -2960.3833   -2545.3272    1114.5997    12530.616 
    9800    307.32471    264.91935   -2997.3116   -2540.1894     34.94157    12533.592 
    9850    303.10058    264.83611   -2994.5371   -2543.6979   -23.668336    12536.536 
    9900     294.5123    264.60503   -2986.8345   -2548.7697    128.02448    12539.361 
    9950    293.79924    264.64442   -2988.1475   -2551.1434    53.510077    12542.127 
   10000    296.51129    264.75942   -2991.9808   -2550.9427   -67.634834    12544.799 
   10050    310.11083    265.27683   -3009.2275   -2547.9612   -596.84154    12547.303 
   10100    302.75992    264.92055   -2997.3516   -2547.0191   -357.18713    12549.391 
   10150    285.51445    264.35178   -2978.3925   -2553.7114    220.93275    12551.158 
   10200     276.8709    264.14245   -2971.4152   -2559.5907    411.88702    12552.927 
   10250    277.89348    264.10866   -2970.2888   -2556.9433    313.15852    12554.812 
   10300    286.85119    264.46798   -2982.2661   -2555.5967    -151.1392    12556.738 
   10350    302.95725    265.13376   -3004.4587   -2553.8328   -800.87202    12558.429 
   10400    295.65184     264.7616   -2992.0532   -2552.2935    -504.2652    12559.587 
   10450    290.45501    264.49786    -2983.262   -2551.2322   -336.69279    12560.337 
   10500    302.38078    265.01669   -3000.5562   -2550.7877   -779.67175    12560.747 
   10550    286.73324    264.42107   -2980.7023   -2554.2084    -144.2467    12560.666 
   10600    288.69579    264.58298   -2986.0993   -2556.6862    -149.3422    12560.348 
   10650    287.19425    264.51518   -2983.8392   -2556.6595   -135.98663    12559.844 
   10700    283.67306    264.37737   -2979.2457   -2557.3035    92.619382    12559.152 
   10750    264.70012    263.63713    -2954.571   -2560.8496    788.64312     12558.46 
   10800    293.46924    264.83525   -2994.5083    -2557.995   -192.57536    12558.013 
   10850    300.34644    265.01007   -3000.3356    -2553.593   -381.39235    12557.408 
   10900    286.21374    264.40513   -2980.1711   -2554.4499    269.92418    12556.525 
   10950    278.53315    264.20309   -2973.4363   -2559.1393    619.13872    12555.675 
   11000    266.67245     263.7438   -2958.1268   -2561.4717    996.03524    12555.082 
   11050     272.9473    263.92104   -2964.0348   -2558.0463    752.85376    12554.932 
   11100    278.19187    264.06954   -2968.9848   -2555.1955    620.11985    12555.127 
   11150    281.26305    264.16122   -2972.0408   -2553.6833    447.90511    12555.579 
   11200    299.29413    264.82297   -2994.0988   -2548.9215   -279.49661    12556.163 
   11250    305.39885    265.07024   -3002.3415   -2548.0838   -517.10843      12556.5 
   11300    299.20168    264.82738   -2994.2461   -2549.2063   -284.99802    12556.446 
   11350    289.69493    264.42049   -2980.6829   -2549.7836    106.44866    12556.127 
   11400    275.15433     263.9151   -2963.8368   -2554.5656    641.74731     12555.77 
   11450    285.30484    264.24695   -2974.8984   -2550.5291    421.96614    12555.634 
   11500     287.2003       264.22        -2974   -2546.8113    423.49692    12555.657 
   11550    285.94791    264.18296   -2972.7655   -2547.4396    430.56652    12555.828 
   11600    305.98983    264.92204   -2997.4012   -2542.2645   -207.85659    12556.095 
   11650    292.63664    264.41467   -2980.4889   -2545.2141    282.09521    12556.207 
   11700    285.77847    264.21606   -2973.8685   -2548.7947    542.06727    12556.361 
   11750    292.04274    264.33072   -2977.6906   -2543.2991      336.079    12556.688 
   11800    301.48504    264.66803   -2988.9344   -2540.4983   -3.7042243     12557.09 
   11850    295.74226    264.40438   -2980.1459   -2540.2517    206.93597    12557.424 
   11900    285.65101    264.03068   -2967.6892    -2542.805    600.56778    12557.776 
   11950    294.36302    264.37502   -2979.1674   -2541.3247    371.22095    12558.321 
   12000    297.00876    264.33394   -2977.7979   -2536.0199    274.72959    12558.997 
   12050    308.68206    264.77425   -2992.4751   -2533.3339   -160.80613    12559.679 
   12100    294.53621    264.28379   -2976.1264   -2538.0261    294.16109     12560.21 
   12150    296.13104    264.34299   -2978.0996   -2537.6271    326.60511    12560.787 
   12200    307.69038    264.69875   -2989.9583   -2532.2922    19.615944    12561.412 
   12250    291.80327    264.03656   -2967.8854   -2533.8501    622.81903    12561.985 
   12300    307.26695     264.6077   -2986.9232   -2529.8869    131.11089    12562.753 
   12350    320.45165    265.04662   -3001.5539   -2524.9064   -307.11452    12563.487 
   12400    293.97722    264.03984   -2967.9948   -2530.7259     677.5002    12564.017 
   12450     288.7683    263.81668   -2960.5561   -2531.0351    985.32203    12564.776 
   12500    295.79986     264.1205   -2970.6833   -2530.7034    753.24928    12565.968 
   12550    308.90694    264.58703   -2986.2343   -2526.7586    297.36821    12567.475 
   12600    295.75458    264.05424   -2968.4746    -2528.562    659.29209    12569.095 
   12650    301.61961    264.27783   -2975.9278   -2527.2915    405.58438    12570.935 
   12700    303.76577    264.27641   -2975.8803   -2524.0517    313.66194    12572.915 
   12750    314.84768    264.59971   -2986.6569   -2518.3448     -8.44364    12574.936 
   12800    311.22396    264.43395   -2981.1318   -2518.2097     99.73946    12576.866 
   12850    310.96419    264.42357   -2980.7857     -2518.25    146.55791    12578.716 
   12900    290.54019    263.64367   -2954.7889   -2522.6324    813.00798    12580.588 
   12950    289.75395    263.55983   -2951.9945   -2521.0074    787.88379    12582.769 
   13000    299.50093    264.01378    -2967.126    -2521.641    296.89702     12585.26 
   13050    318.10971    264.66573   -2988.8576   -2515.6935   -324.48398    12587.791 
   13100    304.62372    264.18465   -2972.8218   -2519.7171    156.49895    12590.087 
   13150    296.03462    263.82789   -2960.9296   -2520.6005    465.32437    12592.341 
   13200    301.34801    263.97732   -2965.9107   -2517.6784    222.13937    12594.711 
   13250    294.52229    263.75259   -2958.4197   -2520.3402    398.30426     12597.12 
   13300    293.73137    263.69756   -2956.5852    -2519.682     468.0002    12599.641 
   13350    308.89287    264.26719    -2975.573   -2516.1183   -26.566856     12602.28 
   13400    297.53955    263.85562    -2961.854   -2519.2864    359.97499    12604.846 
   13450    286.32872    263.38759   -2946.2531   -2520.3608    723.95089     12607.52 
   13500    320.62579    264.70373   -2990.1244   -2513.2179   -460.82241     12610.38 
   13550    301.52716    263.82867   -2960.9556   -2512.4568    153.51816    12612.979 
   13600    311.64534    264.19055   -2973.0183   -2509.4695    -33.83751    12615.464 
   13650    295.19153    263.56997   -2952.3323   -2513.2572    554.82084    12617.876 
   13700    301.31542    263.82001    -2960.667   -2512.4831    306.26462    12620.425 
   13750    305.99336     263.9772   -2965.9067   -2510.7648    76.497303    12623.044 
   13800    307.89456    264.07329   -2969.1096   -2511.1397   -8.5522272    12625.605 
   13850    310.32707    264.12839   -2970.9463   -2509.3583   -24.921762    12628.049 
   13900     307.2063    264.01032   -2967.0108   -2510.0647    75.301942     12630.37 
   13950    294.17886    263.47779   -2949.2597    -2511.691    610.22951    12632.629 
   14000    284.40561    263.09699   -2936.5664   -2513.5346    1072.7126    12635.122 
   14050    301.97502    263.72523   -2957.5078   -2508.3428     485.5344    12638.063 
   14100    306.42588    263.73176   -2957.7252     -2501.94    287.93254    12641.192 
   14150    300.52974    263.60928   -2953.6427   -2506.6275    323.25821     12644.38 
   14200    302.19434    263.70781   -2956.9271    -2507.436    201.79553    12647.626 
   14250    292.43593    263.41738   -2947.2461   -2512.2698    455.82044    12650.896 
   14300    306.13403    263.90675   -2963.5582    -2508.207    4.0925994    12654.255 
   14350     300.9099    263.65723   -2955.2411   -2507.6604    112.97821    12657.538 
   14400     320.3658    264.36409   -2978.8031   -2502.2832    -623.1553    12660.705 
   14450    312.28546    264.13246    -2971.082    -2506.581   -428.38003    12663.452 
   14500    293.96445    263.39608   -2946.5359   -2509.2861    255.48578    12665.845 
   14550    285.12822     263.0038   -2933.4601   -2509.3535    549.32343    12668.269 
   14600    307.82028    263.81059    -2960.353   -2502.4936   -236.13718    12670.827 
   14650    305.63515    263.67634   -2955.8782    -2501.269   -268.98434    12673.187 
   14700    305.48076    263.64096   -2954.6987   -2500.3192   -263.08553    12675.258 
   14750    307.55605     263.7635   -2958.7834   -2501.3171   -312.14704    12677.052 
   14800    314.32013    264.02178   -2967.3928   -2499.8654   -444.95797    12678.529 
   14850    289.21477    262.94881    -2931.627   -2501.4419    502.95478    12679.698 
   14900    290.67603     262.9897   -2932.9899   -2500.6313    505.41787    12680.985 
   14950    301.45319    263.30356    -2943.452   -2495.0633    50.506708    12682.436 
   15000    302.92509    263.34819   -2944.9396   -2494.3615   -142.92853    12683.813 
   15050    309.33706    258.54844   -2951.6146   -2491.4991   -308.41745    12684.961 
   15100    291.26153    257.93326   -2931.1085   -2497.8791    301.04442    12685.849 
   15150    299.15408    258.24548    -2941.516   -2496.5469    86.605134    12686.726 
   15200    313.21869    258.81031   -2960.3436   -2494.4545   -345.40011    12687.516 
   15250    313.34666     258.7906   -2959.6868   -2493.6073   -327.80376    12688.005 
   15300    313.16729    258.72399   -2957.4664   -2491.6538   -284.64805    12688.163 
   15350    306.26261    258.37584   -2945.8612   -2490.3188   -4.3933675    12688.032 
   15400    311.90797    258.49429   -2949.8098   -2485.8704   -86.589382    12687.737 
   15450    305.02794    258.15525   -2938.5083   -2484.8024    275.70536    12687.289 
   15500     300.3516    257.96112   -2932.0372    -2485.287    479.25911    12686.866 
   15550    314.09717    258.48398   -2949.4659   -2482.2702    20.833863    12686.547 
   15600    312.42381    258.35629   -2945.2098    -2480.503    58.012599    12686.132 
   15650     312.6419    258.25203   -2941.7344   -2476.7033    147.10801    12685.626 
   15700    307.88189     258.0801   -2936.0034   -2478.0524    323.35654    12685.082 
   15750     316.0129    258.38883   -2946.2942    -2476.249    28.880647    12684.553 
   15800    321.04987    258.50171   -2950.0569   -2472.5195   -151.69218    12683.926 
   15850    336.09435    259.07818   -2969.2728   -2469.3579   -609.18246    12683.041 
   15900    321.03259    258.42741   -2947.5803   -2470.0687    23.129775    12681.726 
   15950     314.9673    258.23475   -2941.1584   -2472.6685    323.47326    12680.267 
   16000    316.64968    258.24816   -2941.6052   -2470.6128    290.01697    12678.851 
   16050    306.58069    257.88038   -2929.3461   -2473.3305     546.1975    12677.496 
   16100    312.00931    258.10478    -2936.826   -2472.7358    387.55622    12676.317 
   16150    320.05011    258.49084   -2949.6947   -2473.6444    216.59662    12675.239 
   16200    318.47747    258.26657    -2942.219   -2468.5079    360.07311    12674.176 
   16250    322.93885    258.42405   -2947.4685   -2467.1214    201.77885    12673.166 
   16300    317.41178    258.30114   -2943.3713   -2471.2453    280.38396    12672.138 
   16350    313.75747    258.13921   -2937.9738   -2471.2833    412.22421    12671.148 
   16400    315.22793    258.15748   -2938.5827    -2469.705     434.7064     12670.27 
   16450    321.45167    258.44864   -2948.2881   -2470.1531    223.12777    12669.502 
   16500    333.89705     258.9972   -2966.5733   -2469.9267   -199.46009    12668.715 
   16550    316.48501    258.41937   -2947.3124   -2476.5649    285.10303    12667.725 
   16600     313.9619    258.38655   -2946.2182   -2479.2237    345.37871    12666.728 
   16650    315.48369    258.44202   -2948.0675   -2478.8094    289.35959    12665.798 
   16700     320.4417    258.68566   -2956.1886   -2479.5559    102.42405    12664.882 
   16750    315.02016    258.53904   -2951.3014   -2482.7328    302.20709    12663.909 
   16800    299.81412    257.97135   -2932.3784   -2486.4276    821.13202    12663.001 
   16850    307.96642    258.29756   -2943.2519   -2485.1752    491.72241    12662.385 
   16900    325.57641    258.98109   -2966.0362   -2481.7659   -226.39595    12661.908 
   16950    315.59968    258.66063   -2955.3544   -2485.9238    4.4220825    12661.224 
   17000    317.17581    258.85456   -2961.8187   -2490.0437   -59.387726     12660.37 
   17050    315.49478     258.8553   -2961.8433   -2492.5688   -25.436407    12659.374 
   17100    315.50797    258.92003   -2964.0011   -2494.7069    72.239552    12658.231 
   17150    309.81204    258.74641   -2958.2136   -2497.3917    309.08438    12657.009 
   17200    305.90048    258.64073   -2954.6911   -2499.6873    304.24002    12655.829 
   17250    307.93748    258.81482   -2960.4938   -2502.4602    32.698433     12654.68 
   17300    296.88988    258.33692   -2944.5639   -2502.9627    348.80005    12653.468 
   17350    303.68167    258.76679   -2958.8928   -2507.1894    160.09359    12652.285 
   17400    299.40405    258.68504    -2956.168   -2510.8272    272.99809    12651.106 
   17450    308.74323    259.00765   -2966.9218   -2507.6896   -8.4753776    12649.927 
   17500    301.41719    258.70985   -2956.9949   -2508.6597    259.28884    12648.646 
   17550    303.94903    258.89404   -2963.1348   -2511.0336    75.783343    12647.381 
   17600    315.30143    259.33187   -2977.7291   -2508.7421   -369.81657    12646.014 
   17650    305.25675     259.0817   -2969.3899   -2515.3436   -112.89628    12644.346 
   17700     303.0732     259.0452   -2968.1732   -2517.3748   -97.485974    12642.467 
   17750    293.44456    258.71004   -2957.0015   -2520.5249    150.97203    12640.427 
   17800    302.59782    259.02751   -2967.5835   -2517.4922   -185.29914    12638.312 
   17850    302.92237    259.08664   -2969.5546   -2518.9806   -221.73761    12635.984 
   17900    295.28748    258.87198   -2962.3994   -2523.1817    35.720198    12633.419 
   17950    303.02836    259.22731   -2974.2436   -2523.5119   -174.47552    12630.713 
   18000    292.56739    258.78061   -2959.3537   -2524.1819    192.91441    12627.834 
   18050    301.31903    264.22067   -2974.0225   -2525.8332    5.2400439    12624.903 
   18100    282.22696    263.44292   -2948.0972    -2528.306    783.09468    12621.939 
   18150    294.46073    263.95272   -2965.0907   -2527.1026    269.84496    12619.231 
   18200    306.48625    264.57736   -2985.9119   -2530.0369   -354.90683    12616.583 
   18250    295.16156    264.13808   -2971.2695    -2532.239    3.3596023    12613.686 
   18300     292.9268    264.03064   -2967.6879   -2531.9815    191.91946     12610.66 
   18350    294.72427    264.12243   -2970.7477   -2532.3677    184.99622    12607.642 
   18400    300.87101    264.33721   -2977.9071   -2530.3843   -99.686282    12604.613 
   18450    298.67497    264.30282   -2976.7606   -2532.5042   -103.39231    12601.434 
   18500    294.03839    264.11622   -2970.5408    -2533.181    46.903659    12598.095 
   18550      301.577    264.42295    -2980.765    -2532.192   -201.24384    12594.646 
   18600    293.57527    264.11866    -2970.622    -2533.951    155.46657    12591.024 
   18650    280.41784    263.62135   -2954.0451   -2536.9448    732.99304    12587.407 
   18700    295.03813    264.20738   -2973.5793   -2534.7325    284.76011    12584.045 
   18750    287.44077    264.06175   -2968.7251   -2541.1788    467.56927    12580.787 
   18800    291.29655    264.11491   -2970.4969   -2537.2154    373.93162    12577.682 
   18850    305.49921    264.61393   -2987.1311   -2532.7242   -65.265554    12574.665 
   18900     291.4329    264.06071   -2968.6902   -2535.2059    428.52644    12571.558 
   18950    284.88369    263.87677   -2962.5591   -2538.8162    715.31562    12568.555 
   19000    291.18777    264.17121   -2972.3738    -2539.254    500.14562    12565.841 
   19050    301.56538    264.46296   -2982.0988   -2533.5432    132.13573     12563.31 
   19100    305.57343    264.65865   -2988.6215   -2534.1042   -9.4686516    12560.745 
   19150     312.0482    264.87799   -2995.9329   -2531.7849    -211.6861     12558.06 
   19200    312.10234    264.81907   -2993.9689   -2529.7403   -201.50939    12555.157 
   19250    303.37855    264.38925   -2979.6417   -2528.3892    218.55156    12552.043 
   19300    293.92608    264.11251    -2970.417   -2533.2242    624.20562    12548.947 
   19350    297.67371     264.3023   -2976.7434   -2533.9763    547.07797    12546.079 
   19400    299.08752    264.41207   -2980.4022   -2535.5322     474.0207    12543.412 
   19450    298.62643    264.30579   -2976.8596   -2532.6755    457.00079    12540.912 
   19500    291.54169    264.11623   -2970.5411   -2536.8949    653.99628    12538.576 
   19550    302.48608    264.60685   -2986.8949   -2536.9698    281.51348    12536.472 
   19600    300.10845     264.4828   -2982.7599   -2536.3713    400.16911    12534.462 
   19650    300.90122    264.41244   -2980.4147    -2532.847    442.46309    12532.567 
   19700    309.69018    264.79163   -2993.0544   -2532.4137    87.189074    12530.782 
   19750    296.32237    264.33174   -2977.7245   -2536.9675    411.75446    12528.985 
   19800    298.49965    264.40808   -2980.2694   -2536.2738    384.70476    12527.298 
   19850    293.40663    264.14668    -2971.556   -2535.1359    660.66028    12525.758 
   19900    308.76584    264.70462   -2990.1538   -2530.8881     211.2887    12524.437 
   19950    314.27792    264.95204   -2998.4014   -2530.9368   -3.0367568    12523.139 
   20000    313.36118    264.92929    -2997.643    -2531.542    57.740835    12521.741 
   20050    305.98791    259.70358   -2990.1195   -2534.9857    397.57217    12520.276 
   20100    306.47657     259.6844   -2989.4799   -2533.6193    457.09579      12518.9 
   20150     306.7111    259.64522    -2988.174   -2531.9645    422.58402     12517.67 
   20200     313.8571    259.84401   -2994.8005   -2527.9618    158.11792    12516.526 
   20250    310.77799    259.88405    -2996.135   -2533.8763    189.15886    12515.352 
   20300    285.95048    258.98009   -2966.0028   -2540.6732    1016.5515    12514.213 
   20350    298.30542    259.46592   -2982.1973   -2538.4906    639.46533    12513.452 
   20400    303.88703    259.66874   -2988.9581   -2536.9492    426.28386    12512.954 
   20450     307.0906    259.73456   -2991.1522   -2534.3782    328.04831    12512.578 
   20500    295.51518    259.38171   -2979.3903   -2539.8339    586.88621    12512.305 
   20550    306.60796    259.78294   -2992.7645   -2536.7084    181.24966      12512.2 
   20600    305.09668    259.70847   -2990.2822    -2536.474    293.51578    12512.108 
   20650    302.83664    259.57231   -2985.7438   -2535.2972    506.87008    12512.051 
   20700    312.22326    259.92123   -2997.3743   -2532.9659     130.5156    12512.122 
   20750    310.20291    259.95316   -2998.4388   -2537.0355    82.851025    12512.157 
   20800     299.2996     259.5543   -2985.1434    -2539.958    400.07773    12512.141 
   20850    288.81684    259.28018   -2976.0061   -2546.4129    697.80024    12512.234 
   20900    296.02828    259.59526   -2986.5086    -2546.189    567.23666    12512.561 
   20950    290.95245    259.51235   -2983.7451   -2550.9754    770.95553    12513.128 
   21000    300.02994    259.95025   -2998.3415   -2552.0697    451.62618    12513.984 
   21050    302.27517    255.04567   -3001.5225    -2551.911    275.20775    12514.984 
   21100    306.34491    255.18149   -3006.0497   -2550.3848    56.187158    12516.008 
   21150    310.80316    255.38795   -3012.9316   -2550.6354   -137.90239    12516.915 
   21200    305.56545     255.2808   -3009.3601   -2554.8546   -58.547526    12517.617 
   21250    301.73768    255.23304   -3007.7679   -2558.9559   -110.96625    12518.156 
   21300    311.98655    255.64762   -3021.5875   -2557.5311   -585.54284    12518.467 
   21350     303.3864     255.3766   -3012.5534   -2561.2891   -349.34499    12518.346 
   21400     294.1956    255.08631   -3002.8769   -2565.2832   -42.729163    12517.886 
   21450    302.45476    255.40966   -3013.6552   -2563.7767   -367.07767     12517.23 
   21500    304.05116    255.51281   -3017.0935   -2564.8405   -514.76606     12516.24 
   21550    292.68046    255.13359   -3004.4532   -2569.1132   -44.700021    12514.845 
   21600    286.72712    255.01059   -3000.3531   -2573.8682    198.09495    12513.265 
   21650    283.15735     255.0117   -3000.3901    -2579.215    175.01309    12511.662 
   21700    300.46382    255.70467   -3023.4891    -2576.572   -498.27233    12509.981 
   21750    300.02354    255.72674   -3024.2245   -2577.9622    -634.9156    12507.912 
   21800    297.76912    255.65812   -3021.9373   -2579.0283   -623.10875    12505.347 
   21850    288.82375    255.44984   -3014.9947   -2585.3912   -379.00458    12502.301 
   21900    295.92932    255.73366   -3024.4553   -2584.2829   -576.34384     12498.87 
   21950    289.67121    255.44791   -3014.9303   -2584.0663   -354.96124    12495.004 
   22000    294.92451    255.60442   -3020.1472   -2581.4694   -450.08354    12490.765 
   22050     284.2467    255.30597   -3010.1989   -2587.4034   -48.180749    12486.173 
   22100    277.79668    255.06806   -3002.2687   -2589.0672    197.64107    12481.422 
   22150    288.96414    255.53845   -3017.9484   -2588.1362   -226.40504    12476.607 
   22200    283.79223    255.35426   -3011.8086   -2589.6892    -29.11486    12471.569 
   22250    286.06689    255.52415   -3017.4717   -2591.9688    22.930618    12466.364 
   22300    294.81709    255.85875   -3028.6249   -2590.1068   -157.88384    12461.039 
   22350     291.2334     255.7902   -3026.3399   -2593.1523    8.4839716    12455.518 
   22400    290.71543    255.75687   -3025.2291    -2592.812    81.399226    12449.865 
   22450    291.53469    255.72954    -3024.318   -2590.6823    197.32456    12444.118 
   22500    281.11551    255.31908   -3010.6361   -2592.4981    666.75647    12438.375 
   22550     296.6877    255.94135   -3031.3785    -2590.078    211.60725    12432.827 
   22600    294.05051    255.84704   -3028.2347   -2590.8569    312.77168     12427.31 
   22650    289.64808    255.61705   -3020.5684   -2589.7388    523.54685     12421.84 
   22700    298.98221    255.99123   -3033.0409   -2588.3275    221.80846    12416.496 
   22750    302.18564    256.18746   -3039.5819   -2590.1037    23.092454    12411.159 
   22800    311.33516    256.47428   -3049.1427   -2586.0553   -194.71521    12405.675 
   22850    295.19782    255.88477   -3029.4925   -2590.4081    479.70087    12400.006 
   22900    295.70054     255.9753     -3032.51   -2592.6779    570.32077    12394.441 
   22950    299.88583    256.16593   -3038.8644    -2592.807     531.3247    12389.055 
   23000    294.68368    255.93541   -3031.1805   -2592.8609    745.26564    12383.858 
   23050    305.18831    256.25127   -3041.7091   -2587.7646    382.71702    12378.908 
   23100    304.96501    256.27794   -3042.5979   -2588.9856    324.58559    12374.072 
   23150     311.6427     256.4591   -3048.6368   -2585.0919    111.71279     12369.26 
   23200    292.53867    255.71406   -3023.8021    -2588.673    846.04512    12364.425 
   23250    286.97002    255.60112   -3020.0374   -2593.1913    1141.0879    12359.897 
   23300    304.10777    256.37463   -3045.8209   -2593.4836    589.56598    12355.841 
   23350    293.99774    256.01177   -3033.7256   -2596.4262    965.75249    12352.044 
   23400    298.05542    256.10896   -3036.9655   -2593.6306    951.20516    12348.611 
   23450    298.98793    256.14589   -3038.1964   -2593.4745     835.9439    12345.592 
   23500    304.14829    256.36394   -3045.4647   -2593.0672    626.70874    12342.885 
   23550    296.71479    255.98017   -3032.6724   -2591.3316    916.37096    12340.418 
   23600    297.42692    256.00894   -3033.6313   -2591.2313    952.26184    12338.306 
   23650    297.10649    255.98188   -3032.7292   -2590.8058    1003.6198    12336.597 
   23700    286.51962    255.59074   -3019.6914   -2593.5152    1306.3535    12335.334 
   23750    303.74036    256.28814   -3042.9379   -2591.1471    755.43012    12334.594 
   23800    298.12817    256.10742   -3036.9138   -2593.4708    903.42514    12334.207 
   23850    315.07818    256.66033   -3055.3443   -2586.6894    357.16687    12334.141 
   23900    323.09347    256.97348   -3065.7826   -2585.2055    80.608828    12334.149 
   23950    302.58943      256.237   -3041.2333   -2591.1545    828.11125     12334.12 
   24000    304.67982    256.29708   -3043.2361   -2590.0479    931.13774    12334.376 
   24050    308.59356    256.49034    -3049.678   -2590.6684    821.36864    12335.031 
   24100    301.34065    256.14487   -3038.1622   -2589.9409    1035.7262    12336.019 
   24150    292.51269    255.79543   -3026.5142   -2591.4238    1372.5111    12337.448 
   24200    297.29016    255.93942   -3031.3141   -2589.1175    1191.0912    12339.488 
   24250    308.60609    256.37109    -3045.703   -2586.6749    643.57696    12342.041 
   24300    308.01985    256.34195   -3044.7318   -2586.5756    597.41875    12344.858 
   24350    310.60237    256.48658   -3049.5528   -2587.5553    528.29931    12347.875 
   24400     310.7389    256.48457   -3049.4856   -2587.2851    538.38382    12351.067 
   24450    304.98136    256.20843   -3040.2808   -2586.6442    692.89957    12354.441 
   24500     297.1834    255.93919   -3031.3063   -2589.2685    896.43989    12358.072 
   24550    290.55824    255.74676   -3024.8921   -2592.7087    1005.1942     12362.08 
   24600    292.65205    255.74257   -3024.7522   -2589.4544     836.5186    12366.513 
   24650    301.48068    256.04059   -3034.6862   -2586.2566    486.79871    12371.281 
   24700     303.4556    256.21177   -3040.3923   -2589.0251    378.51861    12376.206 
   24750    304.82839     256.2424   -3041.4132    -2588.004     331.1977    12381.223 
   24800    305.04387     256.3282   -3044.2735   -2590.5438    243.66856    12386.295 
   24850    304.92892    256.24921   -3041.6404   -2588.0817    268.37046    12391.374 
   24900    289.17266    255.62331   -3020.7771   -2590.6547    784.35385    12396.523 
   24950    295.90826    255.86062   -3028.6874   -2588.5463    493.21767    12401.944 
   25000    301.74003    256.07021   -3035.6738   -2586.8584    159.57827    12407.525 
   25050    292.12414    255.60124   -3020.0415    -2585.529    381.66793    12413.106 
   25100    296.33222    255.81943   -3027.3144   -2586.5427    101.65199    12418.729 
   25150    305.51938    256.16284   -3038.7613   -2584.3244   -254.14442    12424.278 
   25200    292.98356    255.69973   -3023.3245   -2587.5336    121.67666    12429.613 
   25250    286.04776    255.41434   -3013.8112   -2588.3369    367.41881    12434.888 
   25300    286.47037    255.44207   -3014.7358   -2588.6328    381.76172     12440.24 
   25350    303.39612    256.00002   -3033.3339   -2582.0551   -133.97321    12445.646 
   25400    287.55232    255.44126   -3014.7087   -2586.9964    325.91027    12450.917 
   25450    286.34369    255.41456   -3013.8186   -2587.9041    382.91868    12456.214 
   25500    294.66857    255.79445   -3026.4816   -2588.1844    26.199845    12461.594 
   25550    296.00443    255.78372   -3026.1242     -2585.84   -209.65044    12466.888 
   25600    301.25458    255.93612   -3031.2042   -2583.1108   -554.60256    12471.935 
   25650      304.313     256.0277   -3034.2566    -2581.614   -693.84293    12476.552 
   25700    290.26606    255.48094   -3016.0315   -2584.2827   -243.73226    12480.687 
   25750    293.95544    255.61947   -3020.6491   -2583.4127   -361.46371     12484.51 
   25800    289.70198    255.49004   -3016.3346   -2585.4248   -240.23802    12488.023 
   25850    297.10288    255.75003   -3025.0009   -2583.0828   -421.77589    12491.246 
   25900    288.20917    255.38548   -3012.8493     -2584.16   -104.95665    12494.139 
   25950    295.64675    255.52511   -3017.5036   -2577.7515   -338.13753     12496.82 
   26000    312.48574    256.19761   -3039.9202   -2575.1214    -926.9271    12499.146 
   26050    301.73993    250.78644   -3026.2148   -2577.3995   -564.09888    12500.845 
   26100    291.92613    250.39967   -3013.3222   -2579.1042   -250.29212    12502.068 
   26150    301.28156    250.73774   -3024.5913   -2576.4578   -513.64295    12502.964 
   26200    302.62592    250.80396   -3026.7988   -2576.6656   -446.00651    12503.428 
   26250    300.64798    250.59653   -3019.8842   -2572.6931   -344.66952    12503.498 
   26300    297.72637    250.46408   -3015.4693   -2572.6238    -278.5572    12503.213 
   26350    286.33089    250.11869   -3003.9565    -2578.061    150.11306    12502.621 
   26400    285.33156    250.13857    -3004.619   -2580.2099    249.67624    12501.946 
   26450    300.39321    250.66226   -3022.0752   -2575.2631   -249.26046    12501.244 
   26500    303.83009    250.69973   -3023.3243   -2571.4001   -396.59559    12500.273 
   26550     310.6795    250.80181   -3026.7271   -2564.6149   -520.88358    12498.903 
   26600    304.55491    250.57506   -3019.1687   -2566.1664   -234.51831    12497.099 
   26650     299.0419    250.27768   -3009.2558   -2564.4537    42.919245        12495 
   26700    298.62904    250.30798    -3010.266   -2566.0779    112.43382    12492.749 
   26750     294.1742    250.09261   -3003.0871   -2565.5253    280.32955    12490.442 
   26800    322.97498    251.19796   -3039.9318    -2559.531     -661.847    12488.054 
   26850    315.16253    250.87736   -3029.2453   -2560.4649   -354.72586    12485.197 
   26900    305.62193    250.53929   -3017.9765    -2563.387    67.220421    12481.974 
   26950    307.71394    250.54927   -3018.3091   -2560.6079    64.542817    12478.602 
   27000    307.23833    250.50398   -3016.7993   -2559.8056    36.219195    12475.112 
   27050    313.49738    250.72292   -3024.0974   -2557.7938   -104.12563    12471.472 
   27100    309.80556    250.55326    -3018.442   -2557.6298    81.413357    12467.617 
   27150    313.45892    250.73441   -3024.4805   -2558.2341   -58.824309    12463.614 
   27200    312.60178    250.70241   -3023.4136   -2558.4422    33.662306    12459.423 
   27250    298.79023    250.19337   -3006.4456   -2562.0178    622.64359    12455.109 
   27300    307.44574    250.54073   -3018.0243   -2560.7221    403.13315    12450.932 
   27350    323.40577    251.12343   -3037.4475    -2556.406   -70.768146    12446.805 
   27400    304.64544    250.32368   -3010.7893   -2557.6523    633.75791    12442.542 
   27450    307.21538    250.44599   -3014.8663   -2557.9067    568.09292    12438.429 
   27500    318.88868    250.90989   -3030.3298   -2556.0071    173.20713     12434.45 
   27550     311.9274    250.68993   -3022.9977   -2559.0293    518.46623    12430.437 
   27600    307.78256    250.54511   -3018.1703    -2560.367    710.30661    12426.553 
   27650    316.46253    250.81743   -3027.2475   -2556.5335    488.84614    12422.873 
   27700    318.05335    250.84856   -3028.2854   -2555.2051    472.15342    12419.314 
   27750     302.3092    250.31111   -3010.3703   -2560.7083     975.1789    12415.893 
   27800      309.661    250.66255   -3022.0849   -2561.4877    732.96732    12412.828 
   27850    323.78015    251.10477   -3036.8255   -2555.2271    228.41793     12410.01 
   27900    332.00149    251.40839   -3046.9464   -2553.1194   -158.28736    12407.149 
   27950    323.84039    251.17799   -3039.2662   -2557.5782    116.01652    12404.063 
   28000    310.86335    250.72519   -3024.1731   -2561.7874    706.99496    12400.874 
   28050    310.58548    255.70578   -3023.5261   -2561.5538     874.9671    12397.892 
   28100     308.0345    255.67441   -3022.4802   -2564.3022    1033.0944    12395.248 
   28150    293.58495    255.11307   -3003.7692   -2567.0838    1585.1567    12393.066 
   28200    303.15469    255.49632    -3016.544   -2565.6244    1103.9279    12391.563 
   28250    313.07237    255.89374   -3029.7912   -2564.1198    558.23901     12390.53 
   28300    308.51841    255.74445   -3024.8149   -2565.9172    598.86043    12389.701 
   28350    303.22851     255.6407   -3021.3565   -2570.3271    717.38181    12389.072 
   28400    305.26903    255.69924    -3023.308   -2569.2435    681.43765    12388.692 
   28450    290.87953    255.24028   -3008.0093   -2575.3481    1091.2709    12388.597 
   28500    303.38316    255.85061   -3028.3536   -2577.0941    683.60154    12388.933 
   28550    297.50127    255.64593   -3021.5309   -2579.0203    979.75554    12389.565 
   28600     293.1406    255.46166   -3015.3888   -2579.3644     1102.824    12390.616 
   28650    310.79793    256.17177   -3039.0589   -2576.7705    321.31374    12392.113 
   28700    297.19598     255.7092   -3023.6402   -2581.5837    563.44173    12393.736 
   28750    299.76741    255.85664   -3028.5547   -2582.6734    382.67198    12395.529 
   28800    305.46812    256.11249   -3037.0829   -2582.7222    216.16311    12397.405 
   28850    287.51218    255.52534   -3017.5115   -2589.8589    801.83126    12399.334 
   28900    289.72172     255.7846   -3026.1535   -2595.2144    603.89888    12401.555 
   28950    309.41875     256.5121   -3050.4033   -2590.1663   -109.71433    12403.964 
   29000     297.0704    255.99137   -3033.0458   -2591.1761    303.99979    12406.257 
   29050    296.94105    251.02725   -3034.2417   -2592.5644    283.46127    12408.559 
   29100    292.48875    250.90803   -3030.2678    -2595.213    327.34397    12410.899 
   29150    298.37615    251.17169   -3039.0563   -2595.2444    30.998111    12413.268 
   29200    303.24808    251.35366   -3045.1219   -2594.0634   -117.87776     12415.53 
   29250    292.27427      250.989   -3032.9668    -2598.231    235.67097    12417.624 
   29300    299.18615     251.2782   -3042.6067     -2597.59    -77.70525    12419.682 
   29350    297.24946    251.32205   -3044.0685   -2601.9324   -87.708266    12421.578 
   29400    283.09844    250.82808   -3027.6025   -2606.5151    372.24479    12423.318 
   29450    288.18098    250.86238   -3028.7459   -2600.0985     318.9214    12425.106 
   29500    294.92447     251.2088   -3040.2932   -2601.6154    110.25937    12426.929 
   29550    294.19392    251.20315   -3040.1051   -2602.5139    166.11927    12428.697 
   29600    292.92461    251.15196   -3038.3988   -2602.6956    172.49777    12430.412 
   29650    282.14455    250.86534   -3028.8446    -2609.176    426.66663    12432.105 
   29700     281.2834    250.85848    -3028.616   -2610.2283    335.79105    12433.897 
   29750    297.64864     251.5473   -3051.5766   -2608.8468   -296.57319    12435.703 
   29800    299.98589    251.58459   -3052.8198   -2606.6135   -385.59323    12437.248 
   29850    304.95734    251.75226   -3058.4086   -2604.8076   -481.46061    12438.426 
   29900    285.03392    251.02439   -3034.1462   -2610.1798    164.45077    12439.232 
   29950     298.3734    251.56969   -3052.3231   -2608.5153   -387.37517    12439.912 
   30000    296.78687    251.48909   -3049.6365   -2608.1885   -415.72047    12440.272 
   30050     285.8274    256.01811   -3033.9371   -2608.7905    45.966925    12440.273 
   30100    283.30287    255.86567   -3028.8557   -2607.4641    153.61831    12440.174 
   30150    297.80224    256.48959    -3049.653   -2606.6947   -364.94192    12439.983 
   30200     285.6356    255.99803   -3033.2676   -2608.4063    60.627575    12439.504 
   30250    287.88814    256.11713   -3037.2378    -2609.026   -6.7856941    12438.894 
   30300     290.8866    256.14035   -3038.0117     -2605.34   -63.993075    12438.156 
   30350    296.20246     256.4398   -3047.9932   -2607.4145   -330.40019    12437.246 
   30400     299.4639    256.56207   -3052.0691   -2606.6392    -454.0426    12436.011 
   30450    291.49855    256.17367   -3039.1222   -2605.5402   -94.131139    12434.391 
   30500    294.54348    256.20413   -3040.1375   -2602.0264   -111.63766    12432.545 
   30550    291.04396    256.09891   -3036.6303   -2603.7245     -5.35752    12430.509 
   30600    290.45541    256.07979    -3035.993   -2603.9625  -0.11634891    12428.301 
   30650    281.05006    255.73567   -3024.5222   -2606.4816    281.71327    12425.969 
   30700    286.85632    255.96418   -3032.1394   -2605.4623    175.12245    12423.626 
   30750    289.15708    255.92692   -3030.8972    -2600.798    223.07866    12421.245 
   30800    299.71254    256.23427   -3041.1424   -2595.3427   -140.64629    12418.813 
   30850    304.07568    256.42478   -3047.4928   -2595.2033   -362.81015    12416.151 
   30900    298.92165    256.24603   -3041.5343    -2596.911   -168.91226    12413.146 
   30950    288.68068    255.78353   -3026.1177    -2596.727    210.90792    12409.883 
   31000    297.24656    256.14312    -3038.104   -2595.9723   -18.093483    12406.522 
   31050    296.10989    256.13261   -3037.7537   -2597.3126    118.08842    12403.028 
   31100     305.0778    256.40909   -3046.9698   -2593.1897    22.393297    12399.398 
   31150    289.84588    255.87444   -3029.1478   -2598.0241    614.35383    12395.666 
   31200    287.50759      255.759      -3025.3   -2597.6542    752.13407    12392.093 
   31250    302.24403    256.26518   -3042.1726   -2592.6075    326.46993    12388.733 
   31300    310.40856    256.66065    -3055.355   -2593.6457    14.759267    12385.402 
   31350    311.03985    256.62926   -3054.3087   -2591.6605    95.980532    12381.934 
   31400    299.73517    256.20426   -3040.1419   -2594.3085    604.01392    12378.371 
   31450    298.47349    256.19467   -3039.8223   -2595.8656    672.24157    12374.953 
   31500    297.56557    256.10004    -3036.668   -2594.0617    655.96509    12371.748 
   31550    289.58153    255.74788   -3024.9293   -2594.1987    889.75561    12368.762 
   31600    299.88721    256.08341   -3036.1137   -2590.0542    607.39472    12366.081 
   31650    300.05267    256.06811   -3035.6038   -2589.2982    645.67733     12363.62 
   31700     299.4306    256.07515   -3035.8384   -2590.4581    695.06279    12361.348 
   31750    294.26811    255.87441    -3029.147   -2591.4455    866.22948    12359.299 
   31800    294.69817    255.78368   -3026.1227   -2587.7815     839.2849    12357.579 
   31850    309.56078    256.27803   -3042.6009   -2582.1527     348.7544    12356.141 
   31900     299.3923    256.02966   -3034.3221   -2588.9987    554.47111    12354.801 
   31950    317.41656    256.69961   -3056.6538   -2584.5207   -90.521335    12353.557 
   32000    311.21366     256.4843   -3049.4765   -2586.5698    138.19792     12352.17 
   32050    302.35219    251.23221   -3041.0736   -2591.3476    482.73365    12350.702 
   32100    303.23241     251.1871   -3039.5701   -2588.5348     453.5637    12349.327 
   32150    306.92284    251.31103   -3043.7011   -2587.1766    359.94536    12348.035 
   32200    288.30207    250.70134   -3023.3781   -2594.5506    1008.0201    12346.813 
   32250    300.07357    251.18934   -3039.6447    -2593.308    682.09924    12345.943 
   32300    309.70167    251.51128    -3050.376   -2589.7182    399.06266      12345.3 
   32350    290.92821    250.75725   -3025.2415   -2592.5078     1013.476    12344.785 
   32400    302.55938    251.15392    -3038.464   -2588.4298    678.35548    12344.622 
   32450     299.1652    251.00165   -3033.3882   -2588.4027    735.38182    12344.718 
   32500    313.52566    251.56068   -3052.0226    -2585.677    190.94572    12345.042 
   32550    313.53483    251.55381   -3051.7935   -2585.4342    187.94956    12345.362 
   32600    307.80761    251.31887   -3043.9623   -2586.1218    474.49141     12345.65 
   32650    303.87586    251.19208   -3039.7361   -2587.7437    575.24254     12346.04 
   32700    288.70864    250.66217   -3022.0724   -2592.6401    934.73376    12346.632 
   32750    306.63445    251.37777   -3045.9256   -2589.8301    260.81376     12347.55 
   32800    315.02812    251.58094   -3052.6979   -2584.1175   -16.100208    12348.506 
   32850     317.1245    251.67368   -3055.7892   -2584.0906   -30.605051    12349.316 
   32900    301.00966    251.07174   -3035.7246   -2587.9956    506.00416    12350.018 
   32950    315.09493    251.61545   -3053.8484   -2585.1685     105.9569    12350.789 
   33000    309.51375    251.39388   -3046.4627   -2586.0845    258.09045    12351.524 
   33050    314.13096    246.57185   -3052.3952   -2585.1491    92.266872    12352.213 
   33100    289.86782    245.69262   -3023.0874    -2591.931    798.62932    12352.866 
   33150    303.51342    246.29373   -3043.1242    -2591.671      301.785     12353.74 
   33200    302.40096    246.31912   -3043.9706   -2594.1721    358.14853     12354.67 
   33250    295.55598    246.09874   -3036.6247   -2597.0076    628.56099    12355.657 
   33300    297.74681    246.12132   -3037.3774   -2594.5015    526.98486    12356.826 
   33350    301.32828    246.35973   -3045.3244   -2597.1214    252.21937    12358.124 
   33400    303.90106    246.48594   -3049.5314   -2597.5016    68.975189    12359.432 
   33450    310.43622    246.62386   -3054.1285   -2592.3782   -88.108637    12360.644 
   33500    313.32623    246.72855   -3057.6183   -2591.5692   -123.51726    12361.632 
   33550    294.56913    246.04868   -3034.9561   -2596.8068    480.17971     12362.44 
   33600    304.46461    246.42134   -3047.3779   -2594.5099    111.71029    12363.319 
   33650    312.36071    246.78094   -3059.3647   -2594.7518   -207.78323    12364.108 
   33700    307.71706    246.61462   -3053.8206   -2596.1148   -55.472835    12364.654 
   33750    311.83252    246.70792   -3056.9306   -2593.1034   -93.768852    12364.999 
   33800     308.4671    246.52806   -3050.9355    -2592.114    90.178561    12365.143 
   33850     308.6667    246.52736    -3050.912   -2591.7936    62.388978    12365.152 
   33900    306.59676    246.55453   -3051.8177   -2595.7782    21.653827    12365.026 
   33950    299.61224    246.44089   -3048.0296   -2602.3791    168.22338    12364.762 
   34000    297.47942    246.32276   -3044.0921    -2601.614    334.36768    12364.422 
   34050    285.14159    250.86787    -3028.929   -2604.8025    798.60911    12364.129 
   34100    284.16541    250.83776   -3027.9254   -2605.2508    827.45334    12364.126 
   34150    294.52177     251.1413   -3038.0433   -2599.9645    465.94699    12364.425 
   34200    295.78957    251.21875   -3040.6248   -2600.6603     352.7945     12364.85 
   34250     305.9988    251.56275   -3052.0915   -2596.9415   -54.209892    12365.314 
   34300    302.96576    251.40818   -3046.9393   -2596.3007    32.405313    12365.629 
   34350     291.4232    251.03443   -3034.4811   -2601.0112     376.0612    12365.819 
   34400    307.12507    251.72928   -3057.6427   -2600.8175   -176.35021    12366.011 
   34450    298.93234     251.3301   -3044.3366   -2599.6974    74.648103    12366.017 
   34500    300.69272    251.42545   -3047.5152   -2600.2575   -85.840372    12365.874 
   34550    303.44661    251.54609   -3051.5362   -2600.1823   -217.39376     12365.54 
   34600     296.3599    251.27142   -3042.3806   -2601.5677    228.45634    12364.966 
   34650    294.58887    251.24204   -3041.4014   -2603.2228    468.30156    12364.347 
   34700    292.99499     251.1432   -3038.1067   -2602.2989    416.44714    12363.818 
   34750    300.34259    251.50778   -3050.2594   -2603.5226   -4.3668242    12363.346 
   34800    280.84271    250.72252   -3024.0839   -2606.3516    622.36799    12362.792 
   34850    294.41483     251.1652   -3038.8401   -2600.9203    202.15636    12362.376 
   34900    318.43033    252.11774   -3070.5912   -2596.9502   -616.34821    12361.904 
   34950    300.84931    251.50391   -3050.1303   -2602.6398   -35.086096    12361.003 
   35000    302.87345     251.6249   -3054.1633    -2603.662   -121.83443    12359.863 
   35050    300.56515    256.48797    -3049.599   -2602.5311   -55.525844    12358.505 
   35100    294.22566    256.24842   -3041.6139   -2603.9755    205.67356    12356.974 
   35150    304.73714    256.65897   -3055.2991   -2602.0257    12.867832    12355.366 
   35200    299.93342    256.46982   -3048.9939   -2602.8657    228.85168    12353.634 
   35250    302.56661    256.63965   -3054.6549     -2604.61    87.262524    12351.846 
   35300    299.34946    256.60624   -3053.5414   -2608.2817    122.07135    12349.955 
   35350    302.19464    256.64644   -3054.8814   -2605.3898     77.16776    12347.961 
   35400    302.15697    256.68752   -3056.2506    -2606.815      105.889    12345.863 
   35450    303.95138    256.75948   -3058.6493   -2606.5446    114.13505    12343.658 
   35500    293.49036    256.35198   -3045.0659   -2608.5212    518.35847    12341.386 
   35550    299.70654    256.61949   -3053.9829   -2608.1921     335.2035    12339.194 
   35600      295.167    256.44069    -3048.023   -2608.9844    399.33554    12337.055 
   35650    301.58959    256.63643   -3054.5475   -2605.9559     98.46137    12334.947 
   35700    297.20255     256.4435   -3048.1168   -2606.0505    254.56194    12332.758 
   35750    288.76317    256.13068   -3037.6895   -2608.1762    578.86656    12330.576 
   35800    314.61166    257.09784   -3069.9279   -2601.9669   -138.12481    12328.476 
   35850    301.37332    256.55881   -3051.9604   -2603.6905    424.56612    12326.224 
   35900    296.47208    256.37001   -3045.6671   -2604.6874    656.99486    12324.027 
   35950     308.6421    256.86429   -3062.1431   -2603.0613    242.35832    12321.997 
   36000    302.03698    256.60372   -3053.4572   -2604.2001    468.30369    12319.984 
   36050    300.47746    261.60638   -3053.5459   -2606.6084    561.86096    12318.067 
   36100    292.40212    261.28859   -3042.9529    -2608.027    819.29529    12316.329 
   36150    287.49213    261.16389   -3038.7964   -2611.1737     864.6348    12314.888 
   36200    297.81546    261.55439   -3051.8132   -2608.8352    491.73738    12313.783 
   36250    305.03036    261.86388   -3062.1295   -2608.4199    385.65241    12312.834 
   36300    298.62932     261.5336     -3051.12   -2606.9315    688.72012     12311.99 
   36350    303.07965    261.75223   -3058.4077   -2607.5996    481.90405    12311.367 
   36400    299.11427    261.56106   -3052.0354   -2607.1256    616.52126    12310.914 
   36450    298.06138    261.49537   -3049.8455   -2606.5018    668.75476    12310.674 
   36500    292.60464    261.27806   -3042.6021   -2607.3749     792.4615      12310.7 
   36550    294.74025    261.32342    -3044.114   -2605.7102     667.9237    12311.035 
   36600    302.03957    261.62853   -3054.2844   -2605.0235    431.03065    12311.607 
   36650    298.99666    261.49233   -3049.7444   -2605.0095    614.75228    12312.336 
   36700    307.03832    261.80742   -3060.2472   -2603.5509    454.11495    12313.277 
   36750    287.64774    261.13959   -3037.9863   -2610.1321    1050.0926    12314.423 
   36800    286.39051    261.10095   -3036.6982    -2610.714    1107.5689    12316.006 
   36850     289.5962    261.18184   -3039.3946   -2608.6422    965.82957    12318.123 
   36900    294.45495    261.43514   -3047.8378   -2609.8584    717.95847    12320.684 
   36950    296.75906    261.49666   -3049.8887   -2608.4821    558.74721    12323.585 
   37000     303.2375    261.74236   -3058.0786   -2607.0357    195.92002    12326.725 
   37050    296.36216    261.45611   -3048.5371   -2607.7209    364.73276    12329.916 
   37100    281.60298    260.82007   -3027.3356   -2608.4725    803.36855    12333.258 
   37150    296.95388    261.42065   -3047.3549   -2605.6585    121.18855    12336.909 
   37200    300.82566    261.55245   -3051.7483    -2604.293   -40.130912    12340.581 
   37250    291.82564     261.1914   -3039.7134   -2605.6448    414.97258    12344.192 
   37300    295.57723    261.28064    -3042.688   -2603.0392    385.36608    12347.945 
   37350    292.48713    261.12513   -3037.5045   -2602.4521    444.65684     12351.86 
   37400     301.4503    261.50289   -3050.0964   -2601.7119    34.048281    12355.922 
   37450    287.51768    260.87457   -3029.1523   -2601.4916     504.2233    12359.995 
   37500    286.70789    260.86164   -3028.7215   -2602.2652    592.31045    12364.248 
   37550    294.15346    261.15323   -3038.4409   -2600.9099    357.91599    12368.761 
   37600    292.80507    261.02551   -3034.1837   -2598.6583    441.30622    12373.434 
   37650    286.88074    260.72306   -3024.1019   -2597.3886    663.74182    12378.316 
   37700    300.12885    261.12124   -3037.3746   -2590.9557    269.70852    12383.482 
   37750    298.66597    261.00455   -3033.4851   -2589.2421    152.00781    12388.771 
   37800     302.6558    261.23653   -3041.2176     -2591.04   -119.54184    12394.063 
   37850     298.3587    260.96917   -3032.3058   -2588.5198     48.11392    12399.262 
   37900    309.36038    261.42122   -3047.3739   -2587.2238   -334.54736    12404.385 
   37950    307.95331    261.29247   -3043.0825   -2585.0253   -292.16201    12409.274 
   38000    300.13748    260.86664   -3028.8879   -2582.4561   -28.788391    12413.951 
   38050     290.8777     265.5327   -3017.7568   -2585.0983    252.05096    12418.564 
   38100    294.70981    265.60488   -3020.1626   -2581.8041    175.39021    12423.237 
   38150    291.80011     265.4173     -3013.91   -2579.8795    237.95229    12427.964 
   38200    300.82191    265.76648   -3025.5495   -2578.0997   -93.917621    12432.733 
   38250    286.71573     265.1669   -3005.5632   -2579.0953    449.74411    12437.452 
   38300    284.64054    265.05137   -3001.7123   -2578.3311    546.01544    12442.359 
   38350    295.87831    265.42859   -3014.2862   -2574.1897    122.65971    12447.498 
   38400    301.69438     265.7485     -3024.95   -2576.2024   -129.05097    12452.657 
   38450    297.61953    265.49988   -3016.6627   -2573.9761    91.515753    12457.717 
   38500    297.93949     265.3955   -3013.1834    -2570.021    80.607767    12462.771 
   38550    300.39299    265.48801   -3016.2669   -2569.4551      -160.29    12467.799 
   38600    303.91722    265.69209   -3023.0696   -2571.0157   -389.22601    12472.664 
   38650    298.86878    265.33303   -3011.1011   -2566.5564   -137.93053    12477.292 
   38700    286.66722    264.80997   -2993.6655   -2567.2698    348.74063    12481.799 
   38750    300.60961    265.35581   -3011.8602   -2564.7262   -100.04391    12486.381 
   38800    294.06038    264.97452   -2999.1507   -2561.7581    159.32851    12490.878 
   38850    283.90154    264.58846   -2986.2821   -2564.0001    495.35135    12495.413 
   38900    307.68453    265.48131   -3016.0438   -2558.3864   -251.10235    12500.093 
   38950    309.18331    265.44429   -3014.8095   -2554.9228    -263.0891    12504.613 
   39000    301.36206    265.12987   -3004.3291   -2556.0758    34.676009    12508.942 
   39050    296.04771    264.88202   -2996.0672   -2555.7187     275.2864    12513.229 
   39100    304.19748    265.17304   -3005.7681   -2553.2974   -55.913032    12517.577 
   39150    295.99429     264.8793   -2995.9765   -2555.7075    139.67263    12521.861 
   39200     305.2395    265.14856    -3004.952   -2550.9314   -178.73207    12526.109 
   39250    311.29621    265.28802   -3009.6006   -2546.5711   -442.75744    12530.187 
   39300    306.48587    265.11624   -3003.8747   -2548.0002   -366.57194    12533.951 
   39350    312.91978    265.25194   -3008.3978   -2542.9534   -494.76055    12537.399 
   39400    310.93051    265.01532   -3000.5106    -2538.025   -342.62507    12540.494 
   39450    306.44002    264.78991   -2992.9969   -2537.1906   -231.15791    12543.297 
   39500    304.20534    264.70308   -2990.1025   -2537.6201   -206.59307    12545.875 
   39550      302.569    264.60541   -2986.8471   -2536.7986   -161.51029    12548.249 
   39600    315.97055    265.08938   -3002.9795   -2532.9972   -613.58209    12550.419 
   39650    327.21487     265.5304   -3017.6799   -2530.9726   -871.45958    12552.139 
   39700    294.40816     264.2609   -2975.3633   -2537.4535    387.72359    12553.339 
   39750    293.40773    264.22215   -2974.0718     -2537.65    385.15807     12554.59 
   39800    306.34652    264.73372   -2991.1239   -2535.4566   -140.48142    12555.949 
   39850    304.85923    264.70998   -2990.3326   -2536.8776   -108.38729    12557.151 
   39900    296.28768    264.42458   -2980.8195    -2540.114    161.47244      12558.2 
   39950    296.05162    264.33265    -2977.755   -2537.4006    99.547697    12559.228 
   40000    301.27683    264.49027   -2983.0091   -2534.8826   -80.946509    12560.198 
   40050    297.21166    264.40849    -2980.283   -2538.2032    104.64121    12561.027 
   40100    298.57875    264.49272   -2983.0905   -2538.9773    128.36728      12561.8 
   40150    296.78031    264.40453    -2980.151   -2538.7127    234.74714     12562.55 
   40200    287.40818    264.00253   -2966.7509    -2539.253    561.51016    12563.347 
   40250     308.3849    264.76417   -2992.1389   -2533.4397     -186.895     12564.29 
   40300    317.33861    265.12453   -3004.1511    -2532.134   -577.24572    12565.046 
   40350    309.05678     264.7653   -2992.1768   -2532.4782   -286.85284      12565.4 
   40400    301.14413    264.52959   -2984.3197   -2536.3906   -6.0073399    12565.477 
   40450     310.9195    264.87626   -2995.8753   -2533.4061   -263.29813    12565.402 
   40500    308.33684     264.6748   -2989.1599   -2530.5322   -122.84174     12565.09 
   40550    307.21773    264.67447   -2989.1491   -2532.1861    -99.72074    12564.581 
   40600    305.74882    264.56712   -2985.5707   -2530.7925   -102.52337    12563.902 
   40650    299.59046    264.42211   -2980.7369   -2535.1188    -51.69308    12563.056 
   40700    298.96847    264.43198   -2981.0661   -2536.3732    14.067153    12562.039 
   40750    289.79617    264.01446   -2967.1486   -2536.0987    533.20186    12560.947 
   40800     299.1903    264.34415   -2978.1382   -2533.1153    382.88082    12560.007 
   40850    307.40688    264.58412   -2986.1372   -2528.8928    181.69954    12559.162 
   40900    305.32283    264.56565   -2985.5217   -2531.3771    199.53692    12558.316 
   40950    308.27945    264.65956   -2988.6521   -2530.1098    0.5998996    12557.464 
   41000    306.10664    264.62004   -2987.3348   -2532.0244    69.776114    12556.502 
   41050    298.58874    264.31208   -2977.0692   -2532.9411    297.81902    12555.471 
   41100    309.67886    264.73232   -2991.0774   -2530.4535   -181.57067     12554.46 
   41150    312.98449    264.86779   -2995.5928   -2530.0521   -330.89264    12553.244 
   41200    304.19199    264.42241    -2980.747   -2528.2845    56.335638    12551.756 
   41250    307.51572    264.53015   -2984.3383   -2526.9319   -43.422668    12550.133 
   41300    320.47627    265.02367   -3000.7891    -2524.105   -549.23517    12548.325 
   41350    320.70013    265.01625   -3000.5416   -2523.5245   -473.33898    12546.105 
   41400     302.4015    264.37396    -2979.132   -2529.3326    231.10406    12543.516 
   41450    302.73138    264.41529   -2980.5097   -2530.2197    222.90006    12540.873 
   41500    298.29598    264.18754   -2972.9179   -2529.2252    416.32421    12538.242 
   41550    312.19294    264.88802   -2996.2672   -2531.9039   -34.933004    12535.666 
   41600    305.10421    264.60809   -2986.9365   -2533.1171    219.95129    12532.996 
   41650    294.11345    264.18411   -2972.8037   -2535.3322    538.86276    12530.332 
   41700    324.47517    265.33205   -3011.0682    -2528.436   -513.44455    12527.748 
   41750    313.51062    264.91421   -2997.1403    -2530.817   -212.44175    12524.845 
   41800    305.58252    264.65198   -2988.3994   -2533.8686     6.586105    12521.671 
   41850    303.62764     264.6953   -2989.8432   -2538.2201    46.777953    12518.358 
   41900     311.3542    265.04583   -3001.5275   -2538.4118   -111.94273    12514.909 
   41950     293.2688    264.50039   -2983.3463   -2547.1311    472.92957    12511.323 
   42000    303.21338    264.98168   -2999.3893   -2548.3823    51.049159    12507.814 
   42050    309.75696    260.24658   -3008.2193   -2547.4793   -232.55385    12504.201 
   42100     302.1829    259.87379   -2995.7929   -2546.3188   -10.004468    12500.341 
   42150    310.22098    260.19588   -3006.5293   -2545.0991   -263.17187    12496.283 
   42200    304.61914    260.00151   -3000.0503   -2546.9525   -72.109278     12491.96 
   42250    298.25965    259.90989   -2996.9962   -2553.3576    102.08861    12487.443 
   42300    306.29574    260.39128   -3013.0427    -2557.451   -244.62844    12482.798 
   42350    322.46748     261.0264   -3034.2132   -2554.5673   -704.85387    12477.845 
   42400    299.78379    260.16884   -3005.6279   -2559.7222    138.52769    12472.414 
   42450    301.02791    260.27691   -3009.2303   -2561.4741    103.38493    12466.851 
   42500    310.80172    260.71345   -3023.7818   -2561.4878   -214.37304    12461.186 
   42550    301.61709    260.45003    -3015.001   -2566.3684    165.82346    12455.293 
   42600     309.6838    260.88815   -3029.6051   -2568.9739   -42.523511    12449.296 
   42650    303.87625    260.70905   -3023.6351   -2571.6423    178.41859    12443.146 
   42700    298.01445    260.57775   -3019.2583   -2575.9844    338.85403    12436.925 
   42750    303.36684    260.91696   -3030.5652     -2579.33    116.80689    12430.719 
   42800    292.92828    260.46277   -3015.4256    -2579.717    533.45325    12424.467 
   42850    281.97476    260.12608   -3004.2026   -2584.7865    878.02158    12418.363 
   42900    302.28613    261.02881   -3034.2937    -2584.666    198.40041    12412.532 
   42950    294.78469    260.76064   -3025.3548   -2586.8849    403.21571     12406.72 
   43000    304.29532    261.24837   -3041.6122    -2588.996    68.336267    12400.929 
   43050     298.3972    265.94656   -3031.5521   -2587.7089    331.74003    12395.083 
   43100    298.22724    265.88782   -3029.5941   -2586.0036    402.45249    12389.279 
   43150    302.54755     266.1869   -3039.5633   -2589.5467    193.68494     12383.54 
   43200    301.32639    266.15847   -3038.6156   -2590.4154    274.88093    12377.792 
   43250     301.8781    266.26597    -3042.199   -2593.1782    286.67267     12372.06 
   43300    293.50231    265.95442   -3031.8142   -2595.2517    536.26976    12366.384 
   43350    305.08394    266.39581   -3046.5271   -2592.7379    185.11619    12360.839 
   43400    294.66879    266.04109    -3034.703   -2596.4055    627.90435    12355.314 
   43450    291.22408    265.92315   -3030.7715   -2597.5978    767.44595     12349.99 
   43500    294.12653    266.06212    -3035.404   -2597.9131    669.18358    12344.964 
   43550    290.99526    266.03165   -3034.3884    -2601.555    816.02352     12340.19 
   43600    284.90466    265.75479   -3025.1597   -2601.3856    1114.5158    12335.763 
   43650    289.92453    265.94211   -3031.4035   -2600.1628    988.88591    12331.815 
   43700    287.21844    265.88103   -3029.3677   -2602.1521    1072.0452    12328.302 
   43750    295.30347    266.18932   -3039.6441   -2600.4025    812.18978    12325.256 
   43800    299.16511    266.38118   -3046.0394    -2601.054    603.07495    12322.565 
   43850    306.82246    266.64913   -3054.9712    -2598.596    352.58239    12320.077 
   43900    298.45978     266.2632   -3042.1066   -2598.1703    741.65237    12317.715 
   43950    293.98985    266.01916    -3033.972   -2596.6843    923.13044    12315.637 
   44000    309.25621    266.71061   -3057.0203   -2597.0251    379.46062    12313.912 
[...]
   89400    322.22501    256.33199   -3044.3995   -2565.1142    583.53308    12333.385 
   89450     315.3772    256.15322   -3038.4406   -2569.3409    772.95911    12333.295 
   89500    315.52998    256.31982   -3043.9939    -2574.667    705.67099    12333.477 
   89550    312.24443    256.21349   -3040.4498   -2576.0098      710.084    12333.943 
   89600     313.9913    256.36579   -3045.5263    -2578.488    528.09928     12334.65 
   89650    305.78931     255.9921   -3033.0701   -2578.2316    817.48031    12335.546 
   89700    303.49963    256.01336   -3033.7787    -2582.346    814.14396     12336.76 
   89750    314.94858    256.49455   -3049.8182    -2581.356    431.38959    12338.271 
   89800    301.58086    256.03381   -3034.4605   -2585.8818    764.21572    12339.968 
   89850     308.7631    256.40836   -3046.9455   -2587.6838     419.3252    12341.937 
   89900    295.74465    256.07926   -3035.9754   -2596.0776    852.65247    12344.068 
   89950    295.66681    256.02262   -3034.0872   -2594.3053    847.71922    12346.552 
   90000    300.25485    256.24047   -3041.3491   -2594.7428    524.80152    12349.392 
   90050    301.44374    256.27148   -3042.3826   -2594.0079    423.95146    12352.432 
   90100    307.84186    256.55836   -3051.9452   -2594.0538    141.61051    12355.602 
   90150    303.14765    256.42427   -3047.4757   -2596.5666    180.93906    12358.784 
   90200    302.55014    256.45594   -3048.5313   -2598.5109    92.984224    12361.949 
   90250    299.86834    256.40481   -3046.8269   -2600.7955    7.6570636    12365.075 
   90300    291.03804    256.17876   -3039.2921   -2606.3951    187.24059    12368.127 
   90350     289.5135    256.15108   -3038.3693   -2607.7399    221.40879    12371.178 
   90400    304.69218    256.64631   -3054.8769   -2601.6704   -277.78202    12374.224 
   90450     300.5391    256.55588   -3051.8627   -2604.8336   -277.82271    12377.058 
   90500    298.55213    256.61734   -3053.9114   -2609.8377   -325.06436    12379.611 
   90550    291.43483    256.28277   -3042.7591   -2609.2719   -52.694135    12381.894 
   90600    293.21521    256.41072   -3047.0241   -2610.8887   -86.231653     12384.02 
   90650    289.24093    256.28866   -3042.9552   -2612.7312    28.275252    12385.998 
   90700    295.23579    256.45283   -3048.4276   -2609.2867   -228.11113    12387.862 
   90750    286.73319    256.16423   -3038.8077   -2612.3138   -60.004368    12389.522 
   90800    291.42072    256.36013   -3045.3377   -2611.8715   -209.46348    12390.994 
   90850    290.42728    256.27029   -3042.3429   -2610.3543   -166.62107    12392.243 
   90900    290.86218    256.26421   -3042.1402   -2609.5048   -194.34115    12393.277 
   90950     284.5602    256.01085   -3033.6951   -2610.4334   -11.613497    12394.115 
   91000    292.89196    256.36793   -3045.5975   -2609.9429   -244.78656    12394.778 
   91050    290.90612    256.27508   -3042.5027   -2609.8018   -101.40765    12395.203 
   91100    293.20373    256.45057   -3048.3523   -2612.2339   -258.24525    12395.427 
   91150     298.7426    256.63062   -3054.3541   -2609.9971    -486.8632    12395.365 
   91200    287.46009    256.18443    -3039.481   -2611.9059   -133.20738    12394.945 
   91250     295.7247    256.53339   -3051.1129   -2611.2448   -375.16089     12394.27 
   91300    293.01456    256.37995   -3045.9984   -2610.1614   -242.23681     12393.27 
   91350    292.02274    256.33472   -3044.4907    -2610.129   -171.14768    12391.987 
   91400    302.53413    256.68806   -3056.2685   -2606.2719   -459.96845    12390.434 
   91450    290.74389     256.3524   -3045.0802   -2612.6207    -51.68098    12388.514 
   91500    275.64663    255.77176   -3025.7253   -2615.7218     526.9353    12386.422 
   91550    282.29612    255.90897    -3030.299   -2610.4049    305.79876    12384.441 
   91600    303.28184    256.58625   -3052.8749   -2601.7662   -364.91541    12382.445 
   91650    292.13895    256.20049   -3040.0164   -2605.4818    4.1047787    12380.151 
   91700    299.24845    256.49845   -3049.9485   -2604.8391   -98.010638    12377.659 
   91750    294.44309    256.26644   -3042.2147   -2604.2529    311.77252    12374.982 
   91800    284.19111    255.90134   -3030.0446   -2607.3318     719.2852    12372.334 
   91850    297.14584    256.46562    -3048.854    -2606.872    181.85009    12369.866 
   91900    289.36858    256.21131   -3040.3771   -2609.9633    351.21042    12367.401 
   91950    293.90146    256.26715   -3042.2384   -2605.0822    306.95117    12364.961 
   92000    300.78051    256.52179   -3050.7263   -2603.3381    151.03614    12362.529 
   92050    305.98782    256.64568   -3054.8561   -2599.7224    51.205028     12360.03 
   92100    289.35449    255.99268   -3033.0893   -2602.6965    599.30277    12357.445 
   92150    301.45415    256.38291   -3046.0971   -2597.7069     164.0376    12354.979 
   92200    306.71168    256.59888   -3053.2961   -2597.0857   -93.506261    12352.463 
   92250    299.44963    256.32691   -3044.2303   -2598.8216    208.32957    12349.771 
   92300    304.42831    256.49433    -3049.811    -2596.997    155.32169    12347.016 
   92350    300.71098    256.35045    -3045.015   -2597.7302    357.45504    12344.203 
   92400    297.90334    256.24948   -3041.6494   -2598.5407    490.13293    12341.432 
   92450    299.44582    256.27847   -3042.6155   -2597.2126    580.52757    12338.772 
   92500    295.28326    256.02268   -3034.0895    -2594.878    910.04252    12336.314 
   92550    300.73373    256.27404    -3042.468   -2595.1493    773.04203    12334.192 
   92600    309.82158    256.60142   -3053.3806   -2592.5444    455.09385    12332.331 
   92650    311.01736    256.63287   -3054.4292   -2591.8144    381.44204    12330.582 
   92700    308.93393    256.64437   -3054.8124   -2595.2966    435.08086    12328.889 
   92750    298.64254    256.22983   -3040.9944   -2596.7863     910.1014    12327.302 
   92800    291.93257    255.97613   -3032.5377   -2598.3102    1111.2959    12326.078 
   92850    306.92104    256.42159   -3047.3864   -2590.8647    589.21762    12325.295 
   92900    304.87603     256.3209   -3044.0299   -2590.5499    711.25216    12324.736 
   92950    305.65734    256.44326   -3048.1088   -2593.4666    689.47356    12324.416 
   93000    298.50326    256.13761   -3037.9204   -2593.9194    889.92726    12324.364 
   93050    307.89499    251.50716   -3050.2388   -2592.2683    578.74636    12324.634 
   93100    294.35625    250.97678   -3032.5593   -2594.7267    1113.0385    12325.138 
   93150    299.74779    251.10239   -3036.7464   -2590.8942    1044.6932    12326.079 
   93200    309.41323    251.39431   -3046.4771   -2586.2483    626.50891    12327.463 
   93250    328.20185    252.05641   -3068.5471   -2580.3717    -88.02524    12329.023 
   93300    312.78851    251.50887   -3050.2958   -2585.0466    427.71046    12330.456 
   93350    306.06425    251.29456   -3043.1522   -2587.9048    677.59507    12331.966 
   93400    309.41805    251.39077   -3046.3591   -2586.1232    619.44252    12333.699 
   93450    302.82688    251.10094    -3036.698   -2586.2659    854.02597     12335.66 
   93500    316.98272    251.49625   -3049.8749   -2578.3871    395.96676    12337.914 
   93550     303.6238    251.01544    -3033.848   -2582.2306     877.8913    12340.311 
   93600    296.46163    250.80345   -3026.7817   -2585.8175     1037.213    12343.058 
   93650    314.25092    251.43512   -3047.8374   -2580.4129    393.76442    12346.205 
   93700    301.88735    250.89862   -3029.9539   -2580.9194    718.04822    12349.512 
   93750    313.12048    251.33497   -3044.4989   -2578.7559    300.25631    12353.046 
   93800    307.35217    251.16102   -3038.7008   -2581.5377    382.14501    12356.664 
   93850    319.82075    251.66288   -3055.4293   -2579.7202   -111.36235     12360.34 
   93900    304.60512     251.1556   -3038.5199   -2585.4429    302.99183    12363.898 
   93950    300.30892    250.95695   -3031.8982   -2585.2114     496.2995    12367.466 
   94000    292.88408    250.70958   -3023.6525   -2588.0096     680.4007    12371.202 
   94050    306.67403    251.15893   -3038.6309   -2582.4766    229.71869    12375.172 
   94100    311.76676     251.3048   -3043.4935   -2579.7641    34.145028    12379.167 
   94150    303.08771     251.0181   -3033.9366   -2583.1166    274.25259    12383.078 
   94200    300.74587    250.90723   -3030.2411   -2582.9044    397.02102    12387.006 
   94250    296.26074    250.78922   -3026.3073   -2585.6419    473.74683    12391.025 
   94300    301.96106    251.01273   -3033.7576   -2584.6134    193.58556    12395.182 
   94350    308.87392    251.35438   -3045.1458   -2585.7193   -122.86552    12399.338 
   94400    306.88027    251.22062   -3040.6874   -2584.2262   -77.370485    12403.315 
   94450     297.3745     250.9318   -3031.0599   -2588.7378    157.08986    12407.126 
   94500    296.68067    250.87087   -3029.0289   -2587.7389    164.46223    12410.894 
   94550    297.61467    250.98654   -3032.8846   -2590.2053    77.041987    12414.623 
   94600    309.51813    251.38773   -3046.2576   -2585.8728   -403.24889    12418.246 
   94650    301.88324    251.11723    -3037.241   -2588.2125   -270.85121    12421.558 
   94700    300.41567    251.16249   -3038.7497   -2591.9041   -254.86287     12424.56 
   94750    298.82022    251.11738   -3037.2459   -2592.7735    -265.0832      12427.3 
   94800    306.61623    251.38586   -3046.1954    -2590.127   -519.12386    12429.748 
   94850    298.97313    251.08755   -3036.2515   -2591.5516   -299.58775    12431.798 
   94900    304.66706    251.35609   -3045.2029   -2592.0338   -524.72505    12433.506 
   94950    302.53856     251.2399   -3041.3299   -2591.3268    -509.9461    12434.798 
   95000    295.48973    251.17372   -3039.1241   -2599.6055   -428.51659    12435.652 
   95050    286.33376    250.84205   -3028.0684   -2602.1686   -194.14038    12436.131 
   95100    290.39383     251.0848     -3036.16   -2604.2212   -410.58561     12436.33 
   95150    302.69654    251.58894   -3052.9647   -2602.7265   -869.03801    12436.126 
   95200    291.70921    251.23031   -3041.0103   -2607.1149   -526.65073    12435.332 
   95250    273.11718    250.53422   -3017.8075   -2611.5664    179.05335    12434.111 
   95300    285.65633    251.02234   -3034.0779   -2609.1857   -163.11754    12432.768 
   95350    285.87912    251.06536    -3035.512   -2610.2885   -210.22497    12431.216 
   95400    283.34445     251.0459   -3034.8633   -2613.4099   -257.30243    12429.379 
   95450    287.86708    251.14162    -3038.054   -2609.8735   -443.72155    12427.228 
   95500    288.68201    251.13252   -3037.7505   -2608.3579   -486.38393    12424.677 
   95550    297.25796    251.51936   -3050.6453   -2608.4966   -816.64096     12421.66 
   95600    295.97599    251.50964   -3050.3213   -2610.0794   -778.65356    12418.045 
   95650     297.2514    251.71412   -3057.1372   -2614.9983   -712.79163    12413.811 
   95700    273.46367    250.74242   -3024.7473   -2617.9908    261.59696    12409.065 
   95750    272.82039    250.80681   -3026.8938   -2621.0942    327.06022    12404.248 
   95800    298.13305    251.79164   -3059.7213   -2616.2709   -578.75719    12399.393 
   95850    302.46581    251.89967   -3063.3224   -2613.4274   -722.62369    12394.074 
   95900    295.17929    251.70237   -3056.7457   -2617.6888   -411.97878    12388.189 
   95950    282.61384    251.32949   -3044.3165   -2623.9498    7.8870691    12381.911 
   96000    287.83421    251.51244   -3050.4147   -2622.2832   -96.703616    12375.419 
   96050     293.3683    246.80412   -3060.1372   -2623.7741   -236.44087    12368.684 
   96100      284.704     246.3763   -3045.8767   -2622.4011    129.73374    12361.654 
   96150    286.13326     246.4138   -3047.1267   -2621.5251    107.98893    12354.488 
   96200    307.10194    247.17961   -3072.6538   -2615.8629   -476.57324    12347.156 
   96250    302.49899    246.94502    -3064.834   -2614.8897   -182.50448    12339.418 
   96300    301.34999     246.9788   -3065.9598   -2617.7246   -52.955257    12331.376 
   96350     315.6124    247.57337   -3085.7791   -2616.3296   -389.64366    12323.062 
   96400    287.76529    246.50215   -3050.0718   -2622.0428    706.51656    12314.406 
   96450    288.73051    246.49996   -3049.9985   -2620.5338     764.5341    12305.903 
   96500    310.79218    247.27744   -3075.9147   -2613.6348    45.176322    12297.609 
   96550    318.09133    247.57557   -3085.8523   -2612.7156   -99.653291    12289.164 
   96600    308.20675    247.24438   -3074.8125   -2616.3783    382.22929    12280.504 
   96650    298.37396    246.89877   -3063.2924   -2619.4838    801.71633    12271.866 
   96700    308.15135    247.27003   -3075.6675   -2617.3158    526.10045    12263.455 
   96750    308.04755    247.28475   -3076.1584   -2617.9611    606.22391     12255.16 
   96800    302.08363    247.09989   -3069.9962   -2620.6697    831.63563    12247.022 
   96850    305.65621    247.25925   -3075.3084    -2620.668    740.54916    12239.139 
   96900    284.96272    246.60574   -3053.5248   -2629.6643     1422.756    12231.513 
   96950    282.55542    246.54895   -3051.6317    -2631.352      1542.81    12224.462 
   97000    301.72137    247.28361   -3076.1204   -2627.3328    938.26694    12218.049 
   97050    310.68409     247.6384   -3087.9468   -2625.8277    685.47374     12211.99 
   97100    318.23863    247.80674    -3093.558   -2620.2021    496.20245    12206.126 
   97150    313.91763    247.63279   -3087.7598   -2620.8311    642.99616    12200.353 
   97200    308.89403    247.56928   -3085.6425   -2626.1861    910.95654    12194.755 
   97250    297.71029    247.15787    -3071.929   -2629.1075    1389.4929    12189.506 
   97300    313.91471     247.6892     -3089.64   -2622.7157    974.46481    12184.767 
   97350     308.5635    247.56121   -3085.3738    -2626.409    1161.3249    12180.418 
   97400    309.75796    247.56655   -3085.5517   -2624.8102    1191.3624    12176.513 
   97450     310.6319    247.69426   -3089.8087   -2627.7672    1148.8274    12173.075 
   97500    290.66116     247.0681   -3068.9366   -2636.6002    1646.4335    12170.138 
   97550    310.01566    247.75236   -3091.7453   -2630.6205    991.20848    12167.858 
   97600    307.44652    247.67801   -3089.2669   -2631.9635    1090.4077    12165.992 
   97650    305.42206    247.75995   -3091.9983   -2637.7061    1147.3376    12164.538 
   97700    312.17837    247.97609   -3099.2031   -2634.8615    926.73671    12163.534 
   97750    306.03211    247.82314   -3094.1045   -2638.9049    1017.5634    12162.883 
   97800    298.24506    247.52471   -3084.1571   -2640.5401    1229.1362    12162.632 
   97850    282.13781    247.01852    -3067.284   -2647.6254    1719.4407    12162.916 
   97900    296.21031    247.46676   -3082.2253   -2641.6349     1323.527    12163.928 
   97950    302.81657    247.83262   -3094.4208   -2644.0041    1006.2347    12165.514 
   98000    301.94087    247.77825   -3092.6082   -2643.4941    917.75376    12167.506 
   98050    299.64602    247.79071   -3093.0236   -2647.3229    888.91575    12169.851 
   98100    307.04492    248.09011   -3103.0037   -2646.2977     650.0237    12172.517 
   98150    311.20174    248.24144    -3108.048    -2645.159    537.39561    12175.388 
   98200    293.65589    247.59633   -3086.5443   -2649.7534    1095.6733    12178.447 
   98250    297.57052    247.91449   -3097.1496    -2654.536    826.32618    12181.885 
   98300     279.3704    247.27238   -3075.7459   -2660.2036     1197.904    12185.692 
   98350    301.72493    248.09764   -3103.2547   -2654.4618    355.99564    12189.926 
   98400    284.11056    247.55457   -3085.1523   -2662.5594    862.13524    12194.303 
   98450    290.87835    247.85926   -3095.3088   -2662.6493    598.80106    12198.959 
   98500    284.15431    247.60799    -3086.933    -2664.275    628.60762    12203.835 
   98550    287.49638    247.74744   -3091.5812   -2663.9522    468.60709    12208.903 
   98600    281.09729    247.46946   -3082.3152   -2664.2043    671.63291    12214.125 
   98650    288.22813    247.75253   -3091.7509   -2663.0334    284.23429     12219.55 
   98700    304.59391    248.32263   -3110.7542   -2657.6939   -366.49556    12224.984 
   98750    292.38842    247.88531   -3096.1769   -2661.2712     66.76557    12230.145 
   98800     271.5008    247.24132   -3074.7107   -2670.8738    703.25327    12235.222 
   98850    278.26564    247.51595   -3083.8649   -2669.9658    326.43804    12240.497 
   98900    282.57228    247.66369   -3088.7896   -2668.4847    68.454098    12245.838 
   98950     272.0619    247.32965   -3077.6551   -2672.9837    380.79571     12251.12 
   99000    283.76641    247.65907   -3088.6356   -2666.5546    20.114462    12256.439 
   99050      292.877     242.9579   -3098.5967   -2662.9643   -308.42058    12261.626 
   99100     289.0738    242.84392   -3094.7972   -2664.8219   -259.39695    12266.517 
   99150    284.99203    242.74961   -3091.6535   -2667.7495   -203.23479    12271.118 
   99200    286.59841    242.71659    -3090.553   -2664.2596   -362.37577    12275.434 
   99250    294.98553    242.95759   -3098.5863   -2659.8177   -680.22151    12279.383 
   99300    274.77129     242.3072   -3076.9065   -2668.2051   -89.977824    12282.859 
   99350    281.09944    242.44638    -3081.546   -2663.4319   -266.05499    12286.077 
   99400    290.84237    242.76423   -3092.1411   -2659.5351   -667.18322    12288.994 
   99450    291.48748    242.78732   -3092.9108   -2659.3453   -687.11983    12291.386 
   99500    268.70855    242.02517   -3067.5058   -2667.8222    67.503283    12293.296 
   99550    282.44059    242.53588   -3084.5295   -2664.4205   -339.08238    12295.021 
   99600    284.53601    242.54868   -3084.9561   -2661.7304   -425.76195    12296.428 
   99650    283.99621    242.40899   -3080.2998    -2657.877   -427.57044    12297.447 
   99700    283.14627    242.34675    -3078.225   -2657.0664   -417.75305    12298.076 
   99750    297.48448    242.80632   -3093.5439   -2651.0582   -704.73008    12298.279 
   99800    285.15188    242.42957   -3080.9856   -2656.8437   -260.72588    12297.963 
   99850    278.53745    242.16105   -3072.0349   -2657.7315   -37.664006     12297.32 
   99900    291.13268    242.47598   -3082.5328    -2649.495   -376.25452    12296.458 
   99950    285.79586    242.22584   -3074.1947    -2649.095   -149.44101    12295.256 
  100000    290.98952    242.35139   -3078.3795   -2645.5547   -289.82719    12293.774 
Loop time of 26.8327 on 1 procs for 100000 steps with 500 atoms

Performance: 321.996 ns/day, 0.075 hours/ns, 3726.800 timesteps/s
99.8% CPU use with 1 MPI tasks x 1 OpenMP threads

MPI task timing breakdown:
Section |  min time  |  avg time  |  max time  |%varavg| %total
---------------------------------------------------------------
Pair    | 21.598     | 21.598     | 21.598     |   0.0 | 80.49
Bond    | 0.0073154  | 0.0073154  | 0.0073154  |   0.0 |  0.03
Neigh   | 0.54733    | 0.54733    | 0.54733    |   0.0 |  2.04
Comm    | 0.77224    | 0.77224    | 0.77224    |   0.0 |  2.88
Output  | 0.018436   | 0.018436   | 0.018436   |   0.0 |  0.07
Modify  | 2.7441     | 2.7441     | 2.7441     |   0.0 | 10.23
Other   |            | 1.145      |            |       |  4.27

Nlocal:    500 ave 500 max 500 min
Histogram: 1 0 0 0 0 0 0 0 0 0
Nghost:    1584 ave 1584 max 1584 min
Histogram: 1 0 0 0 0 0 0 0 0 0
Neighs:    14430 ave 14430 max 14430 min
Histogram: 1 0 0 0 0 0 0 0 0 0

Total # of neighbors = 14430
Ave neighs/atom = 28.86
Ave special neighs/atom = 0
Neighbor list builds = 659
Dangerous builds = 0

write_data      ${walker}/final_restart_file
write_data      14/final_restart_file

quit
