LAMMPS (19 May 2017)
Processor partition = 14
  using 1 OpenMP thread(s) per MPI task
# gREM variables
variable        lambda world 1000 1005 1010 1015 1020 1025 1030 1035 1040 1045 1050 1055 1060 1065 1070 1075
variable        walker world 0 1 2 3 4 5 6 7 8 9 10 11 12 13 14 15
variable        replica world 2 3 4 6 13 0 1 7 11 14 9 8 5 10 12 15

variable        T0 equal 300.0
variable        press equal 0.0

units           real
atom_style      full
pair_style      lj/cut 5.0

# LJ particles
read_data       ${walker}/restart_file
read_data       14/restart_file
  orthogonal box = (0.966058 0.966058 0.966058) to (24.0339 24.0339 24.0339)
  1 by 1 by 1 MPI processor grid
  reading atoms ...
  500 atoms
  reading velocities ...
  500 velocities
  0 = max # of 1-2 neighbors
  0 = max # of 1-3 neighbors
  0 = max # of 1-4 neighbors
  1 = max # of special neighbors

#dump            dump all xyz 1000 ${walker}/dump.xyz

fix             fxnpt all npt temp ${T0} ${T0} 1000.0 iso ${press} ${press} 10000.0
fix             fxnpt all npt temp 300 ${T0} 1000.0 iso ${press} ${press} 10000.0
fix             fxnpt all npt temp 300 300 1000.0 iso ${press} ${press} 10000.0
fix             fxnpt all npt temp 300 300 1000.0 iso 0 ${press} 10000.0
fix             fxnpt all npt temp 300 300 1000.0 iso 0 0 10000.0
fix             fxgREM all grem ${lambda} -.03 -30000 fxnpt
fix             fxgREM all grem 1070 -.03 -30000 fxnpt
thermo_modify   press fxgREM_press

thermo          50
thermo_style    custom step temp f_fxgREM pe etotal press vol
WARNING: New thermo_style command, previous thermo_modify settings will be lost (../output.cpp:705)
timestep        1.0

temper/grem     100000 1000 ${lambda} fxgREM fxnpt 10294 98392 ${walker}
temper/grem     100000 1000 1070 fxgREM fxnpt 10294 98392 ${walker}
temper/grem     100000 1000 1070 fxgREM fxnpt 10294 98392 14
Neighbor list info ...
  update every 1 steps, delay 10 steps, check yes
  max neighbors/atom: 2000, page size: 100000
  master list distance cutoff = 7
  ghost atom cutoff = 7
  binsize = 3.5, bins = 7 7 7
  1 neighbor lists, perpetual/occasional/extra = 1 0 0
  (1) pair lj/cut, perpetual
      attributes: half, newton on
      pair build: half/bin/newton
      stencil: half/bin/3d/newton
      bin: standard
Per MPI rank memory allocation (min/avg/max) = 5.723 | 5.723 | 5.723 Mbytes
Step Temp f_fxgREM PotEng TotEng Press Volume 
       0    296.16817    262.06636   -3068.8788   -2628.3511    403.93423    12275.049 
      50    282.86625    261.51203   -3050.4009   -2629.6588     896.6045    12275.145 
     100    286.50696    261.60667   -3053.5556   -2627.3982    814.58705     12275.59 
     150     299.1089    262.17835   -3072.6116   -2627.7098    303.00645    12276.355 
     200    295.26627     262.0454   -3068.1799   -2628.9937    391.68406    12277.202 
     250    285.91321    261.67774   -3055.9248   -2630.6506    717.22743    12278.169 
     300    295.90215    262.00958   -3066.9859   -2626.8539    414.40501     12279.39 
     350     297.2138    262.00182   -3066.7274   -2624.6444    360.45424    12280.751 
     400    303.91492     262.2112   -3073.7066   -2621.6562    153.04433    12282.179 
     450     287.0834    261.60668   -3053.5561   -2626.5413    748.07733    12283.621 
     500    284.00661    261.52892   -3050.9641   -2628.5258    812.58756    12285.351 
     550    299.51606     262.1233   -3070.7767   -2625.2693    201.57163     12287.39 
     600    291.47772    261.74805   -3058.2685   -2624.7175     457.2222     12289.48 
     650    289.01128    261.61621   -3053.8735   -2623.9912    541.38263    12291.696 
     700    292.06068    261.69242    -3056.414   -2621.9958     402.7261    12294.093 
     750     296.0663    261.84252   -3061.4173   -2621.0411    281.53322    12296.602 
     800    285.04426    261.39431    -3046.477   -2622.4953    693.23297    12299.196 
     850    292.10551    261.69404    -3056.468   -2621.9832    429.34041    12302.017 
     900    293.93935    261.88541   -3062.8471   -2625.6346    231.49671     12304.98 
     950    307.13944    262.22038   -3074.0128   -2617.1662   -146.21789    12307.945 
    1000    294.51983    261.54912   -3051.6372   -2613.5613    449.28104    12310.784 
    1050    289.84275    261.43159   -3047.7197   -2616.6006    635.14817    12313.729 
    1100    293.99563    261.58731   -3052.9102    -2615.614    404.52186    12316.889 
    1150    290.11164    261.43888   -3047.9627   -2616.4437    510.88512    12320.178 
    1200    290.91117    261.40722   -3046.9073    -2614.199    579.13167    12323.639 
    1250    298.62157    261.66332   -3055.4439    -2611.267    304.71844    12327.278 
    1300    288.21873    261.17827   -3039.2758   -2610.5723    611.79403    12331.011 
    1350    296.33037    261.30755   -3043.5851   -2602.8161    397.95797    12334.941 
    1400    304.41371     261.5822     -3052.74   -2599.9477    149.83043    12338.983 
    1450    310.26123    261.74441    -3058.147   -2596.6569   -63.036832    12342.998 
    1500    307.60288    261.52158   -3050.7192   -2593.1833    114.69204    12346.868 
    1550    286.68199     260.7252   -3024.1733   -2597.7556    921.86528    12350.731 
    1600    294.18267    260.98177   -3032.7258   -2595.1514    662.21605    12354.946 
    1650    300.45499    261.11295   -3037.0984   -2590.1944    379.86679    12359.423 
    1700    301.86577    261.11499   -3037.1663   -2588.1639     313.5675     12363.99 
    1750    297.57921    260.91063   -3030.3543   -2587.7277    457.56932    12368.622 
    1800    301.07916    260.97951   -3032.6504   -2584.8179    362.25655     12373.39 
    1850    306.06604    261.21758    -3040.586   -2585.3359    68.984974    12378.242 
    1900    310.38475    261.26324    -3042.108   -2580.4342   -82.253866    12383.022 
    1950    301.59847    260.90772   -3030.2574   -2581.6526    415.29311    12387.678 
    2000    287.57906    260.34777   -3011.5922   -2583.8402    1019.2514    12392.457 
    2050    304.67879    260.99583   -3033.1943   -2580.0077    408.46439    12397.618 
    2100    295.82876    260.62289   -3020.7629     -2580.74    646.06446    12402.962 
    2150    296.89825     260.6075   -3020.2501   -2578.6364    667.61232     12408.54 
    2200    291.46592    260.28648   -3009.5494   -2576.0159    776.86155    12414.413 
    2250    314.04856    261.07183   -3035.7275   -2568.6041   -61.993678    12420.542 
    2300    305.62571    260.68454   -3022.8179   -2568.2228    96.059746    12426.593 
    2350    312.98084    260.92589   -3030.8631   -2565.3278    -202.2065    12432.531 
    2400    306.70364    260.68118    -3022.706   -2566.5076    27.205545    12438.277 
    2450    310.15437    260.77811    -3025.937   -2564.6059    14.146575    12443.903 
    2500    306.65381    260.67524   -3022.5082   -2566.3839    126.90257    12449.422 
    2550     302.2064    260.57424   -3019.1414   -2569.6323    182.57332    12454.894 
    2600    312.91063    260.89955    -3029.985   -2564.5542   -302.28598    12460.319 
    2650     306.5248    260.63914   -3021.3046   -2565.3721   -215.40539    12465.494 
    2700    313.75363    260.95596   -3031.8655   -2565.1807   -482.57238    12470.394 
    2750     305.2993    260.59962   -3019.9872   -2565.8776   -207.67153    12474.932 
    2800    285.70976    259.80709   -2993.5697    -2568.598    461.72529    12479.247 
    2850    295.86377    260.12421   -3004.1405   -2564.0655    29.501473    12483.654 
    2900    303.49086    260.42464   -3014.1545   -2562.7349   -365.95249    12487.973 
    2950    298.55611    260.20806   -3006.9352   -2562.8556   -214.76734    12491.988 
    3000    303.24762    260.48234    -3016.078   -2565.0202   -395.61751    12495.746 
    3050    308.92896    260.75617   -3025.2057   -2565.6973    -628.6329    12499.151 
    3100    302.68931    260.56144   -3018.7148   -2568.4874   -463.53244    12502.099 
    3150    292.52408    260.13299   -3004.4329   -2569.3255   -220.77565    12504.675 
    3200    304.02077    260.64505   -3021.5018    -2569.294   -713.09031    12506.953 
    3250    297.83073    260.41303   -3013.7676    -2570.767   -549.70744    12508.756 
    3300    304.98728    260.68239   -3022.7462   -2569.1008   -749.60181    12510.094 
    3350    300.91864    260.50179   -3016.7263   -2569.1327   -595.17274    12510.914 
    3400    303.74609     260.5495   -3018.3166   -2566.5173   -577.48804    12511.261 
    3450     302.6004    260.48365   -3016.1216   -2566.0264   -385.40841    12511.144 
    3500    289.24497    259.95322   -2998.4408   -2568.2108    100.11913    12510.711 
    3550    297.26046    260.25603   -3008.5343   -2566.3819    -205.5679    12510.175 
    3600    294.64973    260.15473   -3005.1577   -2566.8886   -122.10037    12509.429 
    3650    293.50867    260.11341   -3003.7804   -2567.2085    27.379027    12508.491 
    3700    301.90748    260.37713   -3012.5709   -2563.5064   -198.56851    12507.433 
    3750    298.09199    260.25088   -3008.3627   -2564.9735   -119.78873    12506.162 
    3800    301.85554    260.38663   -3012.8876   -2563.9003   -280.66167     12504.67 
    3850    296.00883    260.24132   -3008.0441   -2567.7534   -122.94952    12502.902 
    3900    299.99807     260.3618     -3012.06   -2565.8356   -125.84968    12500.931 
    3950    304.26231    260.60348   -3020.1159   -2567.5487     -248.318    12498.762 
    4000    292.88807    260.06243    -3002.081   -2566.4322    101.38038    12496.362 
    4050    302.24865    260.44949    -3014.983   -2565.4111   -260.39959    12493.845 
    4100    306.92735    260.60849   -3020.2831   -2563.7519   -377.42474    12491.081 
    4150    303.89186    260.46982   -3015.6607   -2563.6446   -183.80946    12487.993 
    4200    304.69423    260.41751    -3013.917   -2560.7074   -139.96772    12484.661 
    4250    307.35603    260.48538   -3016.1792   -2559.0104   -239.49556    12481.115 
    4300    304.28012    260.48604   -3016.2013   -2563.6077   -123.59868    12477.321 
    4350    300.75629    260.42643   -3014.2144   -2566.8623    83.862877    12473.349 
    4400    302.13283    260.43836    -3014.612   -2565.2123    133.54449    12469.296 
    4450    299.70581    260.34339   -3011.4463   -2565.6567    271.67593    12465.178 
    4500    288.52616    259.84888   -2994.9628    -2565.802     640.8561    12461.122 
    4550    309.77324    260.73913   -3024.6377   -2563.8735    -156.6095     12457.24 
    4600    297.63254    260.33791   -3011.2637   -2568.5579    231.70274     12453.22 
    4650    296.82434    260.33175   -3011.0582   -2569.5545    345.42395    12449.188 
    4700    305.59167    260.64523   -3021.5077   -2566.9633     74.23884    12445.206 
    4750    315.97537    260.95268   -3031.7559   -2561.7665   -261.63834    12441.137 
    4800    313.91931     260.9077   -3030.2566   -2563.3254   -150.46634    12436.806 
    4850    296.67763    260.27203   -3009.0676   -2567.7821    450.78293    12432.277 
    4900    303.44946    260.57465   -3019.1548   -2567.7968     304.1568    12427.832 
    4950    299.93566    260.46407    -3015.469   -2569.3375    538.00208    12423.468 
    5000     297.0614    260.29948   -3009.9827   -2568.1264    620.63505    12419.275 
    5050    315.42156    261.09826   -3036.6088   -2567.4431   -96.473556    12415.251 
    5100    310.89114    260.98191   -3032.7303   -2570.3033    153.49131    12411.106 
    5150    300.78904    260.55305    -3018.435   -2571.0341    594.80757    12406.934 
    5200    304.04201    260.63975    -3021.325   -2569.0855    527.19487    12402.941 
    5250    296.95708    260.54065   -3018.0216   -2576.3205    684.70267    12399.145 
    5300    312.14704    261.19382   -3039.7938   -2575.4988    127.35287    12395.568 
    5350    309.72601    261.06216   -3035.4055   -2574.7115    155.99358    12391.989 
    5400    310.93173    261.15819   -3038.6062   -2576.1188    160.27228    12388.371 
    5450    298.65518    260.64395   -3021.4649    -2577.238    604.97905    12384.762 
    5500    301.09639    260.80195   -3026.7316   -2578.8735    478.67168    12381.315 
    5550    287.76712    260.29564   -3009.8545   -2581.8227    942.88291     12378.05 
    5600    291.04566    260.54217   -3018.0724    -2585.164    880.87109    12375.165 
    5650    313.10845    261.36931   -3045.6436   -2579.9186    197.59026    12372.617 
    5700    300.82301     260.8885   -3029.6166   -2582.1652    626.85574    12370.116 
    5750     293.7162     260.7745   -3025.8166    -2588.936    796.96261    12367.828 
    5800    304.21042     261.2837   -3042.7899      -2590.3    379.78155    12365.833 
    5850    298.72635    261.12062   -3037.3539   -2593.0211    537.65115    12363.953 
    5900    287.10752    260.71385   -3023.7948   -2596.7442    835.22696    12362.276 
    5950    293.86051    261.04803   -3034.9342    -2597.839    481.82096    12360.904 
    6000    298.31703     261.2929   -3043.0968   -2599.3728    237.49674    12359.696 
    6050     318.7556    257.05393   -3068.4644   -2594.3396   -422.51267    12358.468 
    6100    298.65433    256.37978   -3045.9927    -2601.767    176.95168    12356.949 
    6150     298.9215    256.44939    -3048.313   -2603.6899    124.87801    12355.337 
    6200    300.44257    256.51895   -3050.6317   -2603.7461    19.185647    12353.661 
    6250    307.44582    256.90474   -3063.4913   -2606.1889   -229.93274    12351.839 
    6300     304.2226    256.87632   -3062.5441    -2610.036   -107.32983    12349.781 
    6350    298.54975     256.7129   -3057.0967   -2613.0265    75.185071    12347.532 
    6400    285.59793    256.27071   -3042.3571   -2617.5519    477.26673    12345.208 
    6450    281.53327    256.24811   -3041.6036   -2622.8442    520.95247    12343.005 
    6500    288.96402    256.52121    -3050.707    -2620.895    239.08049    12340.947 
    6550    294.32848    256.74428   -3058.1426   -2620.3513   -9.5200299    12338.891 
    6600    304.16216    257.18015   -3072.6716   -2620.2534   -421.37505    12336.682 
    6650     303.1345    257.16135    -3072.045   -2621.1554   -406.09386    12334.118 
    6700    294.91002    256.81369   -3060.4565   -2621.8002   -43.780573    12331.204 
    6750    289.48613    256.61656   -3053.8854   -2623.2967    263.13695     12328.14 
    6800    283.17135     256.4287   -3047.6233   -2626.4274     526.3623     12325.09 
    6850    289.12337    256.66141   -3055.3802   -2625.3311    283.63981    12322.165 
    6900    302.16397    257.06506   -3068.8353   -2619.3893   -126.37112     12319.25 
    6950    300.23079     257.0659   -3068.8632   -2622.2927   -17.609462    12316.149 
    7000    292.93982    256.90368   -3063.4559   -2627.7301    251.49313    12312.915 
    7050    291.44414     256.8506   -3061.6866   -2628.1855    344.94296    12309.666 
    7100    291.23012    256.84744   -3061.5814   -2628.3987    378.17502    12306.476 
    7150     287.6661    256.81691   -3060.5638   -2632.6823    460.37015    12303.364 
    7200    289.34655    256.88945   -3062.9816   -2632.6005    373.47293    12300.352 
    7250    305.38694    257.39134   -3079.7112   -2625.4713   -27.495624    12297.401 
    7300    288.40787    256.74882   -3058.2941   -2629.3092    556.27565    12294.365 
    7350     288.6123    256.78831   -3059.6104   -2630.3214    494.86696     12291.46 
    7400    299.75679    257.28427   -3076.1422   -2630.2767    14.714359    12288.672 
    7450    290.68834    256.99087   -3066.3622   -2633.9853    244.15158    12285.801 
    7500    298.17628    257.33741   -3077.9137    -2634.399   -5.9108307    12282.902 
    7550    296.75567    257.24428   -3074.8094   -2633.4078    200.81075    12279.887 
    7600     285.8681    256.78357   -3059.4524   -2634.2452    683.74638    12276.877 
    7650    303.47087    257.36329   -3078.7764   -2627.3865    126.91671     12274.04 
    7700    293.75708     256.9931   -3066.4365   -2629.4952     456.1049    12271.194 
    7750    291.62847    256.97907   -3065.9691   -2632.1938    578.84867    12268.447 
    7800    287.02089    256.78163   -3059.3876   -2632.4657    750.63551    12265.909 
    7850    302.24663    257.33682   -3077.8939    -2628.325    315.77911     12263.62 
    7900    302.36238    257.37352   -3079.1174   -2629.3763    310.16459    12261.398 
    7950    297.36991    257.21516   -3073.8386   -2631.5234    483.65833     12259.21 
    8000    287.43186    256.81577   -3060.5258   -2632.9927    843.33106     12257.18 
    8050    300.23792    252.21179   -3073.7264   -2627.1453     415.3959    12255.425 
    8100    296.36887    252.07299   -3069.0998   -2628.2735    544.71522    12253.794 
    8150    299.16382    252.23103   -3074.3678   -2629.3842     588.0385    12252.292 
    8200    296.98607    252.08387   -3069.4624   -2627.7181    753.11752    12250.971 
    8250    304.32816      252.321   -3077.3667   -2624.7016    541.81206    12249.904 
    8300    297.63636    252.13426   -3071.1419   -2628.4304    719.27215     12249.01 
    8350    300.52711    252.19654   -3073.2179   -2626.2066    609.02802     12248.35 
    8400    292.67499    251.91078   -3063.6926   -2628.3607    875.84951    12247.909 
    8450    310.47461    252.59031   -3086.3437   -2624.5363    322.71915    12247.762 
    8500    312.32856    252.61271   -3087.0904   -2622.5253    297.25342    12247.695 
    8550    303.22807    252.24214   -3074.7381   -2623.7093    665.69191    12247.651 
    8600    299.16538    252.19143   -3073.0477   -2628.0619    805.84058    12247.823 
    8650    288.05032    251.71839   -3057.2796   -2628.8266    1258.2396    12248.332 
    8700    306.60261    252.44627   -3081.5423   -2625.4942    653.13577    12249.321 
    8750     302.2557    252.20452   -3073.4839   -2623.9015    675.30918    12250.576 
    8800    306.80325    252.30464   -3076.8214   -2620.4748    459.61272    12252.043 
    8850    308.77616    252.36399   -3078.7997   -2619.5186    409.62293    12253.632 
    8900    298.62036    251.99688   -3066.5627   -2622.3875    743.54821    12255.334 
    8950    309.44093    252.39672   -3079.8905   -2619.6206     376.5504    12257.249 
    9000    294.86671    251.73785   -3057.9284   -2619.3365    918.07915    12259.308 
    9050    310.73731    252.46025   -3082.0082     -2619.81    368.12341    12261.669 
    9100    305.69083    252.22049   -3074.0164   -2619.3245    568.56302    12264.136 
    9150     293.5808     251.8046   -3060.1533   -2623.4741    950.56832    12266.786 
    9200    294.67181    251.82211    -3060.737    -2622.435    896.15431    12269.806 
    9250    296.32824    251.87837   -3062.6122   -2621.8464    796.95056    12273.192 
    9300    306.16541    252.18693   -3072.8977   -2617.4999    427.33081    12276.866 
    9350    290.20635    251.62281   -3054.0936   -2622.4336    921.51002    12280.692 
    9400    297.84638    251.85735   -3061.9116   -2618.8877    602.72317     12284.86 
    9450    312.28801    252.33039   -3077.6798    -2613.175    143.34093    12289.213 
    9500    294.92691    251.71778   -3057.2594   -2618.5779    720.39192    12293.587 
    9550    306.48662    252.07556   -3069.1855   -2613.3099    362.00207    12298.171 
    9600    305.35235    251.94718    -3064.906   -2610.7175    378.08995    12302.857 
    9650    299.90447     251.7653   -3058.8433   -2612.7581    477.72706    12307.619 
    9700     293.8525    251.44552    -3048.184   -2611.1007    677.68013    12312.517 
    9750    294.91094    251.38793   -3046.2642   -2607.6065    718.64292    12317.658 
    9800    289.94181    251.21593   -3040.5309   -2609.2645    928.84248    12323.084 
    9850    294.41157     251.3328   -3044.4268   -2606.5119    762.83284    12328.876 
    9900    301.51679    251.53891   -3051.2972   -2602.8138    387.24893    12334.965 
    9950    312.18004    251.88477   -3062.8255   -2598.4814   -75.491516    12341.138 
   10000    305.64927     251.5775   -3052.5834   -2597.9533    157.45896    12347.178 
   10050     298.0719    246.28342   -3042.7806   -2599.4212    386.41273     12353.18 
   10100    315.56847    246.80721   -3060.2404   -2590.8562   -168.88596    12359.205 
   10150    312.59798    246.60269   -3053.4229   -2588.4571    53.919732    12365.021 
   10200    297.84098    246.05974   -3035.3245   -2592.3086    568.70759    12370.749 
   10250    310.03155    246.46388    -3048.796   -2587.6475    118.79438    12376.608 
   10300    304.71367    246.18308   -3039.4361   -2586.1976     249.6169    12382.416 
   10350     311.9661    246.37726   -3045.9087   -2581.8828    13.782507    12388.182 
   10400    310.41822    246.31359   -3043.7864   -2582.0629    13.560794    12393.832 
   10450    303.72314    246.05357   -3035.1191    -2583.354     291.0179    12399.346 
   10500    303.83271    245.94371    -3031.457   -2579.5288    316.25725    12404.872 
   10550    312.43302    246.24335   -3041.4451   -2576.7247   -1.7281187    12410.418 
   10600    296.80194    245.62021   -3020.6737   -2579.2033     483.8489    12415.868 
   10650    307.42915    245.92455   -3030.8184   -2573.5408     61.40697    12421.399 
   10700    322.15763    246.42524   -3047.5081    -2568.323   -423.77094    12426.817 
   10750    306.45135     245.8212   -3027.3734   -2571.5502    96.639511    12431.909 
   10800    305.58584    245.72482   -3024.1608    -2569.625    41.325969    12436.889 
   10850    312.18131    246.00424   -3033.4747   -2569.1287   -244.62592    12441.724 
   10900    307.04086    245.75518   -3025.1727   -2568.4727   -94.747929    12446.292 
   10950    309.09896    245.71224   -3023.7414   -2563.9802   -132.96344    12450.645 
   11000    299.05987     245.4389   -3014.6301   -2569.8012      130.899    12454.788 
   11050    319.07316    251.10153   -3036.7178   -2562.1206   -451.03993    12458.801 
   11100    308.79207    250.68734   -3022.9115   -2563.6067   -146.49234    12462.478 
   11150    310.95283    250.77289   -3025.7631   -2563.2443   -162.77701    12465.894 
   11200    312.69586     250.8405   -3028.0167   -2562.9053   -235.72799    12469.086 
   11250     308.9139    250.64916   -3021.6387   -2562.1527   -151.88356    12472.014 
   11300    306.09804    250.48429    -3016.143   -2560.8454   -92.053062    12474.713 
   11350      287.883    249.79148   -2993.0493   -2564.8452    438.52335    12477.239 
   11400     288.5719    249.84855   -2994.9516   -2565.7228    383.07188    12479.846 
   11450    305.35732    250.45828   -3015.2761   -2561.0802   -154.11966    12482.519 
   11500    306.87953    250.63019   -3021.0063   -2564.5463   -233.97167    12484.986 
   11550    301.47934     250.3642   -3012.1399   -2563.7122   -29.732617    12487.184 
   11600    298.19219    250.28035   -3009.3451   -2565.8068   -29.469012    12489.215 
   11650    311.19893    250.72392   -3024.1305   -2561.2457   -527.06652    12491.055 
   11700    312.83732    250.62359   -3020.7862   -2555.4644   -525.05775    12492.462 
   11750    306.64495    250.37992    -3012.664   -2556.5529   -277.98317    12493.433 
   11800     296.1284    250.00411   -3000.1371   -2559.6685    49.561235    12494.112 
   11850    316.52559    250.80332   -3026.7773   -2555.9695   -566.56135     12494.59 
   11900    316.81383    250.77318   -3025.7727   -2554.5361   -500.56887     12494.64 
   11950    322.66672    250.97827   -3032.6089   -2552.6666   -559.55627    12494.224 
   12000    304.47088     250.4203     -3014.01   -2561.1326   -10.781604    12493.369 
   12050    312.81404    245.78033   -3026.0109   -2560.7237    -391.1104    12492.268 
   12100    307.85994    245.58601   -3019.5336   -2561.6153   -228.08089    12490.801 
   12150    302.42678    245.38357   -3012.7856   -2562.9487   -2.1809504    12489.036 
   12200    324.02326    246.14374   -3038.1245   -2556.1645   -703.54322    12487.028 
   12250    310.04998    245.71501   -3023.8336   -2562.6578   -359.69881     12484.49 
   12300    298.63091     245.4247   -3014.1565   -2569.9657    50.369898    12481.571 
   12350    303.61149    245.58414   -3019.4714   -2567.8724   -48.975322    12478.486 
   12400    315.60626    246.05062   -3035.0207   -2565.5803    -490.9504    12475.166 
   12450    314.77494    245.94333   -3031.4444   -2563.2405   -373.22631    12471.389 
   12500    305.13723    245.66153    -3022.051   -2568.1825   -67.648092    12467.228 
   12550    314.44954    245.97896   -3032.6321   -2564.9123   -412.85424    12462.795 
   12600    313.42764    246.02493   -3034.1643   -2567.9645    -415.9931    12457.952 
   12650    309.98505    245.97258   -3032.4195   -2571.3402    -234.2233    12452.673 
   12700     296.5978    245.49355   -3016.4517    -2575.285    297.33148     12447.09 
   12750    317.01983    246.36943   -3045.6477   -2574.1048   -364.63048     12441.41 
   12800    312.30802    246.32633   -3044.2111   -2579.6766   -341.78563    12435.349 
   12850    301.91786    245.93808   -3031.2692   -2582.1893    4.3208892    12428.908 
   12900    307.09227     246.2327   -3041.0901   -2584.3136   -44.889985    12422.252 
   12950    304.55812    246.12971   -3037.6569   -2584.6498    116.31256    12415.381 
   13000    313.00311    246.43982   -3047.9939   -2582.4255   -233.65994    12408.333 
   13050     303.2923    251.14112   -3038.0373    -2586.913   -68.171512    12400.995 
   13100    301.15834    251.14688   -3038.2292    -2590.279   -24.590781    12393.422 
   13150    300.88478    251.30915   -3043.6383    -2596.095   -62.293164    12385.637 
   13200    306.70916    251.69865   -3056.6216    -2600.415   -163.40851    12377.602 
   13250    302.21967    251.52189   -3050.7298    -2601.201    85.883951    12369.319 
   13300    308.88468    251.82849   -3060.9498   -2601.5072   -175.74956    12360.853 
   13350    300.29558    251.62471   -3054.1571   -2607.4902    37.463559    12352.108 
   13400     291.9105    251.36058   -3045.3526   -2611.1578    370.53237    12343.217 
   13450     311.5866    252.04932   -3068.3108   -2604.8493    -120.2102    12334.299 
   13500    296.54922    251.60481   -3053.4936   -2612.3991    368.46484    12325.197 
   13550    301.90148    251.93396   -3064.4654   -2615.4098    172.72563    12316.052 
   13600    302.94801    251.98805   -3066.2684   -2615.6562    145.81314    12306.825 
   13650    292.84337    251.69128   -3056.3759   -2620.7936    530.02449    12297.506 
   13700    284.90966    251.38135   -3046.0449   -2622.2633    872.82109    12288.288 
   13750    303.00988    251.97059   -3065.6863   -2614.9821    395.83921     12279.32 
   13800    306.20753    252.12436   -3070.8121   -2615.3516    411.93334    12270.422 
   13850    306.88695    252.19797   -3073.2656   -2616.7945     491.9553    12261.569 
   13900    311.10508    252.46741   -3082.2471   -2619.5019    405.44816    12252.788 
   13950     299.8156    252.01225   -3067.0751   -2621.1222    975.94624    12244.069 
   14000    292.81678    251.81526   -3060.5086   -2624.9659     1333.018    12235.709 
   14050    307.25675    252.40153   -3080.0511     -2623.03    911.42733    12227.868 
   14100     299.1599    252.11122    -3070.374   -2625.3963    1179.2012    12220.381 
   14150    302.43928    252.29732   -3076.5774   -2626.7219    1028.6077    12213.334 
   14200    317.42727    252.83094   -3094.3646   -2622.2156    486.56402    12206.645 
   14250    304.18087    252.44022   -3081.3406   -2628.8946    935.22009    12200.085 
   14300    308.10584    252.56668    -3085.556   -2627.2719    913.54776     12193.83 
   14350    316.57442    252.90198   -3096.7326   -2625.8521     676.3185    12187.902 
   14400    301.89803    252.35272    -3078.424   -2629.3735    1227.4433    12182.212 
   14450    312.49026    252.72925   -3090.9748   -2626.1693    885.26317    12176.948 
   14500    318.49736     252.9607     -3098.69   -2624.9494    686.03191    12172.003 
   14550    306.43104    252.56175   -3085.3916   -2629.5987    1194.0208    12167.301 
   14600    294.01383     252.1287   -3070.9567   -2633.6334    1659.7251    12163.088 
   14650    310.30754    252.75409   -3091.8031   -2630.2441    1143.5508    12159.545 
   14700    292.29641    252.11931   -3070.6437   -2635.8749    1758.9722    12156.542 
   14750    297.31303    252.34684   -3078.2281   -2635.9975    1591.0003      12154.3 
   14800    313.84587    252.97783   -3099.2608   -2632.4389    969.62284     12152.72 
   14850     290.0808    252.13421   -3071.1405   -2639.6673    1662.6078    12151.608 
   14900    307.33944    252.75166   -3091.7219   -2634.5778    1072.6793    12151.172 
   14950    315.65335    253.11534   -3103.8447   -2634.3343    697.33969    12151.174 
   15000     312.7077    253.01493   -3100.4975   -2635.3685    826.30299     12151.42 
   15050    293.94104    252.41114   -3080.3713   -2643.1563    1445.4059        12152 
   15100    308.31357    252.86271   -3095.4237   -2636.8306    1023.5131    12153.171 
   15150     304.9165    252.73552    -3091.184   -2637.6438    1105.6251    12154.787 
   15200    290.89693     252.3311   -3077.7032   -2645.0161    1454.3081    12156.883 
   15250    303.51578    252.89887   -3096.6289   -2645.1722    912.56738    12159.599 
   15300    299.25009    252.76939   -3092.3131   -2647.2012    989.49112    12162.726 
   15350    295.99719    252.67746   -3089.2486   -2648.9752    1040.0128    12166.268 
   15400    306.28452    253.03506   -3101.1686   -2645.5936    639.95823    12170.236 
   15450    308.67499     253.1643   -3105.4766   -2646.3459    569.94155    12174.454 
   15500    285.99102    252.33935   -3077.9784   -2652.5884    1278.1876    12178.922 
   15550    301.39232    252.93245   -3097.7483   -2649.4501    699.18061    12183.895 
   15600    293.59947    252.62168   -3087.3892   -2650.6822    922.82879    12189.208 
   15650    287.04221    252.41594   -3080.5315   -2653.5779    1121.0689    12194.913 
   15700    296.21538    252.73164   -3091.0547   -2650.4568    674.75185    12201.098 
   15750    295.69254    252.70935   -3090.3116   -2650.4913    470.32837    12207.582 
   15800    287.19167    252.43706   -3081.2352   -2654.0594      567.391    12214.249 
   15850    285.77928    252.39743   -3079.9143   -2654.8392    548.96625     12221.13 
   15900    294.01057    252.63829    -3087.943   -2650.6246    224.07508    12228.212 
   15950    301.88901    252.99444   -3099.8146   -2650.7776   -152.89965    12235.323 
   16000    287.71383    252.54516   -3084.8387   -2656.8862     195.9431    12242.315 
   16050    277.48588    247.25458   -3075.1525   -2662.4133    466.16322    12249.316 
   16100    289.63701    247.65039   -3088.3464   -2657.5333    92.793015    12256.443 
   16150    294.09331    247.78753   -3092.9176   -2655.4761   -117.08639    12263.543 
   16200    288.90322    247.53662    -3084.554   -2654.8324   -68.835381    12270.506 
   16250    292.96332    247.61635   -3087.2115   -2651.4508    -292.4573    12277.304 
   16300    287.40701    247.42359   -3080.7862   -2653.2901   -186.18519    12283.855 
   16350    287.48743    247.41622   -3080.5405   -2652.9247    -286.1875    12290.184 
   16400    293.20189    247.59445   -3086.4816    -2650.366   -536.05015    12296.228 
   16450    287.57915    247.42425   -3080.8085   -2653.0563   -383.77383    12301.882 
   16500    282.06686    247.24126   -3074.7088   -2655.1558   -272.72299    12307.215 
   16550    287.82204    247.40206   -3080.0688   -2651.9553   -471.06368    12312.272 
   16600    283.79633    247.33452   -3077.8174   -2655.6919   -372.13099    12316.973 
   16650    291.51987    247.54592    -3084.864   -2651.2503   -623.15388     12321.33 
   16700    288.40571    247.38729   -3079.5762   -2650.5945   -497.55232    12325.237 
   16750    275.12545    246.81761   -3060.5871   -2651.3588   -46.114209    12328.772 
   16800    286.92919    247.20044   -3073.3479   -2646.5625   -438.39533    12332.102 
   16850    292.49689    247.32524   -3077.5081   -2642.4412   -663.92328    12335.089 
   16900     296.7962     247.4032   -3080.1067   -2638.6448   -748.38458    12337.574 
   16950    280.83903    246.80207   -3060.0692   -2642.3424    -175.4572    12339.537 
   17000    290.01058    247.10844   -3070.2815   -2638.9127   -441.17701    12341.208 
   17050    299.27888    247.42054   -3080.6847     -2635.53    -694.3603    12342.492 
   17100    283.58768    246.78899    -3059.633   -2637.8178   -161.89443    12343.287 
   17150    285.55449    246.82287   -3060.7624   -2636.0218   -141.98983    12343.801 
   17200    279.10153    246.46455   -3048.8182   -2633.6758      234.928    12344.108 
   17250     283.1675    246.49183   -3049.7275   -2628.5373    169.33758    12344.372 
   17300    302.32354    247.16814   -3072.2713   -2622.5879   -471.33095     12344.53 
   17350    289.61618    246.66584   -3055.5282    -2624.746   -33.639249    12344.346 
   17400    296.36509    246.88137   -3062.7125   -2621.8919   -160.18447    12343.948 
   17450    305.26157     247.2619   -3075.3967   -2621.3433   -412.97958    12343.285 
   17500    293.26761    246.69274   -3056.4245   -2620.2112    152.67762    12342.284 
   17550    295.39613    246.66622   -3055.5405   -2616.1612    243.42403    12341.168 
   17600    305.65777    247.01478   -3067.1593   -2612.5166   -9.0605678    12339.994 
   17650    292.69771    246.56792    -3052.264   -2616.8984     426.8848      12338.7 
   17700    298.82247    246.79445   -3059.8151   -2615.3394    304.80022     12337.44 
   17750    310.86605    247.09987   -3069.9957    -2607.606    23.852879    12336.169 
   17800    310.09826    246.95606   -3065.2019   -2603.9542   -9.2837516    12334.756 
   17850    308.92569    246.85946   -3061.9821   -2602.4785   -30.545562    12333.145 
   17900     296.4195    246.38107   -3046.0358   -2605.1343    375.13105    12331.365 
   17950    312.15029    246.94575   -3064.8585   -2600.5586   -93.556184    12329.556 
   18000    319.22163    247.15751   -3071.9172   -2597.0992    -331.0581    12327.538 
   18050    324.04813    242.30959   -3076.9863   -2594.9893   -465.77159    12325.139 
   18100    313.74852    241.90707    -3063.569   -2596.8919   -27.786549    12322.305 
   18150    308.10181     241.7274   -3057.5799   -2599.3018    224.58443    12319.229 
   18200    302.88778    241.56127   -3052.0422   -2601.5196    360.14616    12316.071 
   18250    317.17565    242.04677   -3068.2257    -2596.451   -17.507897    12312.867 
   18300    315.79485    242.05882   -3068.6273   -2598.9064    160.89247    12309.465 
   18350    300.56731    241.48032   -3049.3439   -2602.2728    638.08373    12305.959 
   18400    311.91393    241.92117   -3064.0389   -2600.0905    248.56946    12302.538 
   18450    298.14175    241.52742   -3050.9139   -2607.4506    697.14278    12299.096 
   18500    306.78691    241.76943   -3058.9811   -2602.6588    554.62336    12295.788 
   18550      313.554    241.96128   -3065.3761   -2598.9883    401.30876    12292.595 
   18600    328.38737    242.50293   -3083.4311   -2594.9797   -14.977692    12289.376 
   18650    305.31791    241.68329   -3056.1097   -2601.9724    708.14503    12285.995 
   18700    313.89446    242.05473    -3068.491   -2601.5968    510.54899    12282.717 
   18750    311.84125    242.05002    -3068.334   -2604.4938     599.8295    12279.541 
   18800    301.07736    241.66182   -3055.3942   -2607.5644    968.22634    12276.505 
   18850    322.70394    242.41703   -3080.5676     -2600.57     342.1381    12273.732 
   18900    325.50288    242.53497   -3084.4989   -2600.3381    185.94297    12270.968 
   18950    324.95792    242.57263   -3085.7544   -2602.4041    168.48229    12268.088 
   19000    310.14372     242.1264     -3070.88   -2609.5647    516.30774    12265.121 
   19050    317.45486     242.3496   -3078.3201     -2606.13    282.55732    12262.182 
   19100    315.19692     242.3611   -3078.7033   -2609.8718    407.33608    12259.202 
   19150    295.84004    241.69828   -3056.6094   -2616.5697    1014.1315    12256.272 
   19200    307.86461    242.14409   -3071.4695   -2613.5442    614.81383    12253.626 
   19250    301.50451    241.88156   -3062.7187   -2614.2536    874.57072    12251.183 
   19300    313.88677    242.42542   -3080.8474   -2613.9647    610.51309    12248.973 
   19350    310.95225    242.44695    -3081.565   -2619.0471    619.69226    12246.918 
   19400    323.15039     242.8749   -3095.8301   -2615.1684    127.85949    12244.987 
   19450    314.95814    242.61113   -3087.0376   -2618.5613    372.84367    12242.954 
   19500    301.93823    242.12502    -3070.834   -2621.7238    827.11049    12240.926 
   19550    310.23333    242.44656    -3081.552   -2620.1034    489.97786    12239.117 
   19600    313.51077    242.62124   -3087.3748   -2621.0513    305.49758    12237.382 
   19650    298.57457    242.11869    -3070.623    -2626.516    765.81615    12235.655 
   19700       295.38     242.1235   -3070.7833   -2631.4279    854.83373     12234.13 
   19750    298.93871    242.33402   -3077.8005   -2633.1519    729.64467    12232.883 
   19800    300.89053    242.34013   -3078.0043   -2630.4524    685.61166    12231.851 
   19850    307.24125    242.69719   -3089.9063   -2632.9083    387.45289    12230.994 
   19900    314.89591    242.98086   -3099.3621   -2630.9783    99.756038     12230.17 
   19950    305.55953     242.6593   -3088.6435   -2634.1468    363.08852     12229.24 
   20000     310.0745    242.82503   -3094.1678   -2632.9555    247.66028    12228.308 
   20050    295.44429    242.26386    -3075.462    -2636.011    731.06056    12227.374 
   20100    293.30503    242.30788   -3076.9292   -2640.6602    738.06032    12226.612 
   20150      301.513    242.63219   -3087.7397    -2639.262    418.36576    12226.065 
   20200    309.97092    242.82743   -3094.2477   -2633.1894    141.67307    12225.571 
   20250    315.93626    243.19884    -3106.628   -2636.6967   -80.637523    12224.954 
   20300    299.05918    242.71707   -3090.5689    -2645.741    430.98195    12224.148 
   20350    289.30713    242.32053    -3077.351   -2647.0285    669.51612    12223.387 
   20400    299.42248    242.68153   -3089.3845   -2644.0162    253.77813    12222.777 
   20450    288.30737    242.31429    -3077.143   -2648.3077    603.06459    12222.176 
   20500    289.93338    242.44683    -3081.561    -2650.307    642.86274      12221.7 
   20550    290.80915    242.46672   -3082.2241   -2649.6675    597.14873    12221.409 
   20600    289.26733    242.44395   -3081.4651   -2651.2019     546.1474    12221.293 
   20650     286.6699    242.33313   -3077.7709   -2651.3711    558.58541    12221.316 
   20700    300.81941    242.97837   -3099.2788   -2651.8328    73.000937    12221.436 
   20750    309.55373    243.23129   -3107.7097    -2647.272   -87.289374    12221.461 
   20800    304.28822    243.08568   -3102.8559   -2650.2503    25.312462    12221.282 
   20850    310.64223    243.30978   -3110.3261   -2648.2694   -228.16352    12220.917 
   20900    308.47635    243.26283   -3108.7609   -2649.9257   -54.835398    12220.268 
   20950    285.28243    242.36516   -3078.8388   -2654.5028    714.45401    12219.453 
   21000     298.1511    242.86981   -3095.6604   -2652.1833    122.10372    12218.763 
   21050    303.91546    243.10611   -3103.5371   -2651.4859   -160.52177    12217.996 
   21100    301.82808    243.00799   -3100.2664     -2651.32    29.081086     12216.98 
   21150      294.099    242.71747   -3090.5823   -2653.1323    336.31516    12215.797 
   21200    304.09901    243.10185    -3103.395   -2651.0708   -30.990598    12214.581 
   21250    299.99322    243.00904   -3100.3012   -2654.0841    127.91828     12213.19 
   21300    289.08923    242.64182   -3088.0608   -2658.0624    553.92281    12211.701 
   21350    289.54456    242.66749   -3088.9162   -2658.2406    498.29669    12210.301 
   21400     296.1051     242.9038   -3096.7934   -2656.3595    162.71046     12208.97 
   21450    298.88363    243.10949   -3103.6496   -2659.0829    91.112364    12207.563 
   21500    296.17202    242.96632   -3098.8775    -2658.344    332.56374    12206.033 
   21550    297.66202    242.90317   -3096.7723   -2654.0226    337.82558    12204.483 
   21600    283.80378    242.47083   -3082.3611   -2660.2245    779.23742    12202.938 
   21650    299.57312    243.05058   -3101.6858   -2656.0935      408.879    12201.578 
   21700    306.61463    243.29197   -3109.7322   -2653.6662    153.88454    12200.282 
   21750     296.0719    242.88613   -3096.2045   -2655.8199    332.61106    12198.909 
   21800    311.47327    243.42667   -3114.2222   -2650.9293   -244.13124    12197.481 
   21850    295.85879    242.96526   -3098.8419   -2658.7744    221.48146    12195.781 
   21900    294.36587    242.91131   -3097.0437   -2659.1968    347.33289     12193.98 
   21950    300.73565    243.15274   -3105.0912   -2657.7698    159.02258    12192.165 
   22000    291.80975    242.88067   -3096.0222   -2661.9773    444.32258    12190.271 
   22050     296.0656    237.99757   -3099.9189   -2659.5437    366.62623    12188.398 
   22100    294.75007    237.94019   -3098.0062   -2659.5878    451.75929    12186.539 
   22150    297.56342     238.0399   -3101.3301   -2658.7271     394.8623    12184.713 
   22200    304.36882    238.23744   -3107.9146   -2655.1891    295.75819    12182.881 
   22250    295.57679    237.88688   -3096.2295   -2656.5814    577.65612    12181.027 
   22300    306.69596    238.30048    -3110.016    -2653.829    178.89129    12179.231 
   22350    298.51418    238.00739   -3100.2462    -2656.229    469.51931    12177.372 
   22400    291.79084    237.78186   -3092.7287   -2658.7119    746.26791    12175.552 
   22450    304.20983     238.2251   -3107.5034   -2655.0144    375.19987    12173.883 
   22500     299.8342    238.14491   -3104.8304   -2658.8498    435.39753     12172.25 
   22550    309.95099    238.52375   -3117.4585   -2656.4298    132.98289    12170.621 
   22600    305.30193     238.3571   -3111.9033   -2657.7898    361.90245    12168.895 
   22650    294.52658    237.85985   -3095.3283   -2657.2423    806.00573    12167.172 
   22700    295.84198    237.89673   -3096.5576    -2656.515    738.78485    12165.646 
   22750    313.23726    238.54707   -3118.2358   -2652.3191    212.37164    12164.285 
   22800    304.38016    238.26114   -3108.7048   -2655.9624    502.67553    12162.889 
   22850    301.03868    238.20005   -3106.6683   -2658.8961    528.46181    12161.531 
   22900    301.16067    238.21115   -3107.0382   -2659.0846     445.5732    12160.253 
   22950    296.03447    238.11207   -3103.7355   -2663.4067    552.58057    12159.031 
   23000    313.09242     238.6033   -3120.1099   -2654.4086    114.38143    12157.862 
   23050    294.59121    237.99034   -3099.6781    -2661.496    746.45155    12156.614 
   23100    296.09185    238.00361   -3100.1204   -2659.7062    782.08514    12155.531 
   23150    304.07829    238.20071   -3106.6903   -2654.3969    570.01178    12154.666 
   23200    301.60747    238.21509   -3107.1695   -2658.5512    615.34445     12153.92 
   23250    309.53231    238.46601   -3115.5337   -2655.1279    324.09928    12153.306 
   23300    312.23357    238.54414   -3118.1381   -2653.7143    164.96383    12152.678 
   23350    302.31196    238.30081   -3110.0269   -2660.3608    447.21345    12151.947 
   23400    292.14404    237.94826   -3098.2752   -2663.7331    802.92694     12151.27 
   23450    302.86625    238.36392   -3112.1307   -2661.6401    451.80649    12150.817 
   23500    304.59156    238.44918   -3114.9727   -2661.9159    274.19918    12150.445 
   23550    303.56463     238.4947   -3116.4901   -2664.9607    249.56359    12150.029 
   23600    295.57198    238.31921   -3110.6405   -2670.9996    550.37776    12149.575 
   23650    288.60008    238.04993   -3101.6643   -2672.3935    806.47909    12149.226 
   23700    297.68917    238.41311   -3113.7704   -2670.9803    438.65561    12149.103 
   23750    297.20796    238.47049    -3115.683   -2673.6087    387.76815     12149.06 
   23800     279.9018    237.92666   -3097.5554   -2681.2227    883.34422    12149.083 
   23850    292.36211     238.3529   -3111.7634    -2676.897    514.23827    12149.345 
   23900    299.71234    238.69791   -3123.2638   -2677.4644    267.21403    12149.714 
   23950    283.70328    238.25718   -3108.5727   -2686.5856     695.6999    12150.092 
   24000    293.96366    238.66325   -3122.1084   -2684.8598    269.02805    12150.616 
   24050    289.35245    238.46267   -3115.4224   -2685.0326    331.41934     12151.15 
   24100    278.69403    238.11222   -3103.7406   -2689.2044    626.02758    12151.695 
   24150    291.22542    238.59696   -3119.8988   -2686.7231    244.34339    12152.368 
   24200    287.53843    238.43078   -3114.3594   -2686.6678    364.06267    12153.036 
   24250    286.17005    238.40712   -3113.5708   -2687.9145    359.30622    12153.734 
   24300    299.91371    238.86774   -3128.9246   -2682.8257   -45.082814    12154.432 
   24350    282.45593    238.27916   -3109.3052   -2689.1734    470.47564    12154.982 
   24400    290.33851    238.64234   -3121.4112   -2689.5546    104.01251    12155.562 
   24450    299.20624      238.894   -3129.8001   -2684.7535   -240.56282    12156.033 
   24500    290.81778    238.65494   -3121.8314   -2689.2619    20.409713     12156.22 
   24550    275.77174    238.05546   -3101.8485    -2691.659    555.84795    12156.259 
   24600    290.28119     238.5834   -3119.4467   -2687.6755    86.507987    12156.359 
   24650     286.9594    238.52477   -3117.4925   -2690.6621    108.76127    12156.373 
   24700    284.49727    238.41968   -3113.9892    -2690.821    160.87111    12156.266 
   24750    283.67049    238.43312   -3114.4375   -2692.4991    88.884446    12156.061 
   24800    291.67329    238.66678   -3122.2261   -2688.3842   -195.63211    12155.714 
   24850    294.17128    238.80275   -3126.7582   -2689.2008   -189.17222    12155.091 
   24900    278.87735    238.27816   -3109.2721   -2694.4632    339.50161    12154.212 
   24950    287.36564    238.64957   -3121.6523   -2694.2177    36.322728    12153.281 
   25000    279.17047    238.27261    -3109.087   -2693.8421    267.30126    12152.237 
   25050    299.51538    234.01695   -3133.8982   -2688.3918   -416.66905    12151.087 
   25100    298.96985    234.12926    -3137.642    -2692.947   -474.84312     12149.54 
   25150     286.9259    233.67928   -3122.6426    -2695.862    14.601014    12147.553 
   25200    292.76399    233.79375   -3126.4583    -2690.994     -106.344    12145.339 
   25250    305.45916    234.20103   -3140.0345   -2685.6871   -473.19294    12142.838 
   25300    293.52966    233.86559    -3128.853   -2692.2499   -27.792003    12139.912 
   25350    296.34768    233.96739   -3132.2463   -2691.4516   -15.153781    12136.718 
   25400    292.23419    233.76755   -3125.5849   -2690.9087    241.21594    12133.306 
   25450    286.44888    233.55905    -3118.635    -2692.564    539.29623    12129.795 
   25500    295.67186    233.82614   -3127.5381   -2687.7487    247.15509    12126.331 
   25550    303.94631    234.18526   -3139.5087   -2687.4116   -23.031988    12122.778 
   25600    307.48746    234.30871   -3143.6236   -2686.2593   -81.388433     12118.99 
   25650    295.96201    233.84447   -3128.1492   -2687.9281    401.37785    12114.968 
   25700    289.87893    233.64734   -3121.5782   -2690.4052    690.97761    12110.923 
   25750    296.67714    233.84862   -3128.2875   -2687.0027     541.8962    12106.998 
   25800    295.96702     233.8067   -3126.8901   -2686.6615    605.97677    12103.147 
   25850    294.70821    233.73204   -3124.4013   -2686.0452    700.51441    12099.397 
   25900    302.73171    233.87991   -3129.3305     -2679.04    581.88253    12095.768 
   25950    292.39778    233.60136   -3120.0452   -2685.1257    886.05339     12092.26 
   26000    291.68629    233.65142   -3121.7142   -2687.8529    907.09567    12088.997 
   26050     307.4087    239.06469   -3135.4895   -2678.2424    588.23759     12085.97 
   26100    302.51832    238.87858   -3129.2859   -2679.3129    842.43746    12083.103 
   26150    311.11175    239.10818   -3136.9393   -2674.1841    687.45787    12080.457 
   26200    302.69999    238.76565   -3125.5215   -2675.2782    1074.4852    12078.009 
   26250    294.87945    238.46038   -3115.3458    -2676.735    1407.8942    12075.933 
   26300    299.00164    238.48698   -3116.2327   -2671.4904    1340.1342    12074.385 
   26350    302.48447    238.60041   -3120.0137    -2670.091    1280.8001    12073.372 
   26400    313.71098    238.90073   -3130.0242   -2663.4029    1018.4833    12072.842 
   26450    293.72168    238.21713   -3107.2376   -2670.3488    1635.7566    12072.732 
   26500    299.51229    238.47204   -3115.7348    -2670.233     1423.809    12073.267 
   26550    306.93127    238.62146   -3120.7154   -2664.1784    1183.3997    12074.376 
   26600    299.04337    238.36707   -3112.2357   -2667.4313    1461.1163    12075.977 
   26650       301.14    238.42716   -3114.2386   -2666.3157    1468.9992     12078.17 
   26700    318.82598    238.94993   -3131.6642   -2657.4347    904.14744    12080.942 
   26750    314.89119    238.85105   -3128.3685   -2659.9917    968.13858    12084.064 
   26800    310.88422    238.69929   -3123.3096   -2660.8928    1128.8668    12087.537 
   26850    310.41552    238.65892   -3121.9639   -2660.2443    1140.9534     12091.45 
   26900     300.4372    238.20573   -3106.8576   -2659.9801    1507.1692    12095.828 
   26950    297.62116    238.03636   -3101.2121   -2658.5232    1556.7689    12100.855 
   27000    309.18618    238.44595   -3114.8649   -2654.9739    1006.7939    12106.545 
   27050    310.59007    238.43237   -3114.4124   -2652.4332      927.505    12112.654 
   27100    309.81152    238.35929   -3111.9763   -2651.1551    989.46271    12119.131 
   27150    311.16556    238.37115   -3112.3716   -2649.5364    930.95212    12125.995 
   27200    306.02721    238.14711   -3104.9036   -2649.7114    1017.7301    12133.231 
   27250    303.75023    238.06557   -3102.1857   -2650.3803    956.04249    12140.867 
   27300    314.51177    238.42243   -3114.0809   -2646.2685    468.54037    12148.859 
   27350    318.70786    238.42854   -3114.2846   -2640.2308    297.50342    12156.981 
   27400    313.19674    238.28326    -3109.442   -2643.5855    494.25998    12165.125 
   27450    310.18776    238.22251   -3107.4169   -2646.0361    584.39956    12173.385 
   27500    300.81005    237.88711    -3096.237   -2648.8049    813.85559    12181.841 
   27550    304.35389    238.01409   -3100.4696   -2647.7662     658.5002    12190.572 
   27600    297.85779    237.67141   -3089.0469    -2646.006    779.01025    12199.555 
   27650    307.32761    237.93642   -3097.8806    -2640.754    301.55238    12208.809 
   27700    312.17452    238.09107   -3103.0356   -2638.6996   -22.468864    12218.091 
   27750     292.6352    237.33503   -3077.8343   -2642.5616    499.14781    12227.259 
   27800    302.82946     237.6929   -3089.7634   -2639.3275    66.197304    12236.508 
   27850    299.13703    237.60519   -3086.8395   -2641.8959    70.787912    12245.681 
   27900    289.74928     237.2622   -3075.4067   -2644.4266    316.87573    12254.771 
   27950    306.42697    237.74607   -3091.5356   -2635.7487   -240.90639    12263.847 
   28000    297.34903    237.36613   -3078.8712    -2636.587    20.730348     12272.69 
   28050    283.46155    236.93274   -3064.4246   -2642.7971    409.14942    12281.404 
   28100    299.40857    237.53274   -3084.4246    -2639.077   -183.03404    12290.157 
   28150    303.87113    237.61982   -3087.3274   -2635.3421   -363.70426    12298.687 
   28200    300.64193    237.51033   -3083.6778   -2636.4957   -306.16665    12306.879 
   28250    305.22445      237.666   -3088.8666   -2634.8684   -482.54468    12314.741 
   28300    296.53623    237.31277   -3077.0923   -2636.0171   -301.18495    12322.198 
   28350    309.56338    237.69994   -3089.9979   -2629.5458     -797.925    12329.279 
   28400    294.27901    237.08948   -3069.6494   -2631.9317   -422.01602     12335.82 
   28450    296.79592    237.21171   -3073.7237   -2632.2623   -474.99126    12341.921 
   28500    293.42597    237.13447    -3071.149   -2634.7001   -408.29713    12347.614 
   28550    300.83899    237.25779   -3075.2596   -2627.7844   -608.72982    12352.894 
   28600    292.55086      236.899   -3063.2998   -2628.1526   -326.59263    12357.701 
   28650    295.37685    236.90271   -3063.4238   -2624.0731   -373.71661    12362.132 
   28700    299.46135    236.92163   -3064.0545   -2618.6284   -470.73645     12366.19 
   28750    308.92131    237.17373   -3072.4576   -2612.9606   -824.96677    12369.799 
   28800    312.99579    237.25497   -3075.1657   -2609.6082   -898.27717    12372.758 
   28850    308.09332    237.01131   -3067.0436   -2608.7781   -740.13376    12375.047 
   28900    313.22091    237.15077   -3071.6923      -2605.8    -911.5848    12376.706 
   28950    306.39103    236.81046   -3060.3488   -2604.6154   -573.12599    12377.677 
   29000    308.99951    236.92664   -3064.2214    -2604.608    -614.5646    12378.105 
   29050    314.24557    237.05641   -3068.5469   -2601.1304   -702.19877    12377.968 
   29100    293.81303    236.30389   -3043.4631   -2606.4385    91.417173     12377.29 
   29150    309.05093    236.80038   -3060.0126   -2600.3228   -202.08979    12376.415 
   29200     316.0742    236.95701   -3065.2336   -2595.0972   -405.16688    12375.251 
   29250    303.91618    236.47531    -3049.177   -2597.1248      48.5844    12373.672 
   29300    304.51273    236.47637   -3049.2122   -2596.2726    154.31704    12371.894 
   29350    316.58971    236.78849   -3059.6164   -2588.7131   -152.84651    12369.992 
   29400    311.54354    236.53461   -3051.1536   -2587.7562   -37.523767    12367.819 
   29450    322.64022    236.93341   -3064.4469    -2584.544   -313.90333    12365.385 
   29500    321.60793    236.80428   -3060.1428   -2581.7754   -198.51101    12362.587 
   29550    326.84609    236.98933   -3066.3111   -2580.1523   -392.87389    12359.446 
   29600    340.05128    237.43916   -3081.3053   -2575.5048   -788.56737    12355.837 
   29650    312.40114    236.51935   -3050.6449   -2585.9719    145.07999    12351.637 
   29700    319.79202    236.69575   -3056.5251   -2580.8587    62.446549    12347.237 
   29750    310.56573    236.35393   -3045.1309   -2583.1879    384.38216      12342.7 
   29800    303.02979    236.06172   -3035.3905   -2584.6567    764.45247    12338.172 
   29850    321.04135    236.72029   -3057.3431   -2579.8184    297.26359    12333.801 
   29900    316.00973     236.5756   -3052.5201   -2582.4796     487.7297     12329.44 
   29950    319.23587    236.73643   -3057.8812    -2583.042    368.70252    12325.111 
   30000    341.67447    237.50147   -3083.3823   -2575.1674   -257.89793    12320.722 
   30050    329.35355    237.04739   -3068.2462   -2578.3577    92.385567    12316.028 
   30100    316.74174     236.7178   -3057.2599   -2586.1306    413.16033     12311.15 
   30150    313.54948    236.59888   -3053.2961   -2586.9151     635.2111    12306.289 
   30200    314.99888    236.66539   -3055.5131   -2586.9761    751.81817    12301.548 
   30250    305.78196    236.34093   -3044.6976   -2589.8701    1087.2325    12297.025 
   30300    316.23069    236.76088   -3058.6959   -2588.3267    771.17091    12292.857 
   30350    318.26099    236.80895   -3060.2983   -2586.9092    678.23851    12288.915 
   30400    320.18602    236.95094   -3065.0312   -2588.7788    586.14968    12285.125 
   30450    321.44685    237.02067   -3067.3556   -2589.2278    520.30745    12281.461 
   30500    320.84933     237.1076   -3070.2533   -2593.0143    419.80936    12277.865 
   30550    313.31921    236.87224    -3062.408   -2596.3694    662.73758    12274.314 
   30600    326.23842     237.3768   -3079.2265   -2593.9716    325.86592    12270.874 
   30650    316.12225     237.0403   -3068.0102   -2597.8023    681.92669    12267.429 
   30700    312.79238    236.94254   -3064.7512   -2599.4962    891.38366    12264.137 
   30750    318.17185    237.20014   -3073.3379   -2600.0814    728.37094    12261.115 
   30800    322.66393    237.50796   -3083.5985   -2603.6604    460.83956    12258.283 
   30850    307.58053    237.06593   -3068.8645   -2611.3617    895.30332     12255.55 
   30900    317.24411    237.31072   -3077.0239   -2605.1473    683.45533    12253.053 
   30950    313.78354    237.18404   -3072.8012    -2606.072    741.08551    12250.743 
   31000    317.50082    237.34141    -3078.047   -2605.7886    577.40442    12248.619 
   31050    305.60733    242.00655    -3066.885   -2612.3172    944.00172    12246.654 
   31100     318.7055    242.58229   -3086.0763    -2612.026    571.34544    12244.959 
   31150    306.57537    242.28453   -3076.1509   -2620.1433    859.08086    12243.432 
   31200    297.53625    241.95156   -3065.0521   -2622.4895    1155.3345    12242.197 
   31250    303.46533    242.20996   -3073.6654   -2622.2837    951.08164    12241.401 
   31300    305.31807    242.31596   -3077.1986   -2623.0611    745.37193    12240.946 
   31350    309.89931    242.48322    -3082.774   -2621.8223    423.51711    12240.726 
   31400    322.88747    242.95914   -3098.6381   -2618.3675   -32.223557    12240.538 
   31450    314.84667    242.72431   -3090.8102   -2622.4996    290.21184     12240.19 
   31500    292.89191    242.00229   -3066.7429   -2631.0884    1024.1467    12239.853 
   31550    292.05914    242.04442   -3068.1473   -2633.7315    960.77778    12239.871 
   31600    318.78871    242.98102   -3099.3673   -2625.1932    49.689335      12240.2 
   31650    319.69486    242.95313   -3098.4378   -2622.9159   -23.793035    12240.417 
   31700    298.64214    242.25895   -3075.2982   -2631.0907    597.50726    12240.481 
   31750    300.92143    242.34882    -3078.294   -2630.6962    483.77777    12240.654 
   31800    304.75361    242.49792   -3083.2639    -2629.966     284.5557    12240.914 
   31850    299.55519    242.31647   -3077.2156   -2631.6499    461.02387    12241.165 
   31900    303.69614    242.47802   -3082.6007   -2630.8757    279.11085     12241.48 
   31950    313.14044      242.867   -3095.5665   -2629.7939   -85.010454    12241.773 
   32000    308.65704    242.65561   -3088.5202   -2629.4163    135.56521    12241.881 
   32050    305.87509    242.53766   -3084.5886   -2629.6226    300.79639    12241.875 
   32100    288.20615    241.94505   -3064.8349     -2636.15    859.65857    12241.885 
   32150    290.18214    242.09691    -3069.897    -2638.273    797.61035    12242.148 
   32200    295.12144    242.28601   -3076.2005   -2637.2297    665.07544    12242.684 
   32250    300.40753    242.51443   -3083.8143   -2636.9808    415.58266    12243.413 
   32300    300.44441    242.48562   -3082.8541   -2635.9658    284.64652    12244.219 
   32350    306.46377    242.81864   -3093.9545   -2638.1129    -56.80085    12244.994 
   32400     299.2089    242.62976   -3087.6587   -2642.6082    168.64354    12245.585 
   32450    292.73659    242.33404   -3077.8013   -2642.3778    409.65169    12246.106 
   32500    298.96354    242.55843    -3085.281   -2640.5954    238.11369    12246.658 
   32550    293.49263    242.40332   -3080.1105   -2643.5625    395.19033    12247.196 
   32600    299.93872    242.67332   -3089.1106   -2642.9745    177.72619    12247.747 
   32650    287.98076    242.29026   -3076.3419   -2647.9924    499.26409    12248.262 
   32700    294.65121     242.4866   -3082.8867   -2644.6154    256.26345    12248.844 
   32750    292.70739     242.4423   -3081.4099   -2646.0298    247.96017    12249.412 
   32800    301.05353    242.72847    -3090.949   -2643.1547   0.30829362    12249.945 
   32850    299.86525    242.68283   -3089.4276   -2643.4008   -6.0787479    12250.333 
   32900    307.52232    242.98431   -3099.4769   -2642.0608   -275.55273    12250.519 
   32950    309.82356    243.11372   -3103.7907   -2642.9516   -403.40705    12250.383 
   33000    308.13454    243.02519   -3100.8396   -2642.5128   -344.87323    12249.872 
   33050     303.9295    237.91816    -3097.272   -2645.1999    -127.7169    12248.978 
   33100    287.96695    237.30049   -3076.6831   -2648.3541    429.93544    12247.838 
   33150    297.47241    237.70732   -3090.2439   -2647.7762    13.521948    12246.706 
   33200    300.26188     237.8888   -3096.2933   -2649.6765   -156.05587    12245.406 
   33250    295.42148    237.81242   -3093.7472   -2654.3302    40.061922    12243.839 
   33300    297.89489    237.91087   -3097.0289   -2653.9329    20.258253    12242.108 
   33350     300.6785    237.89854    -3096.618   -2649.3815   0.67472464    12240.196 
   33400    299.97175    237.88092   -3096.0308   -2649.8456    21.178534    12238.091 
   33450    299.20159    237.81014   -3093.6714   -2648.6317    12.244051    12235.809 
   33500    303.80987    237.98925   -3099.6417   -2647.7475   -255.82363    12233.312 
   33550    299.84227    237.86985   -3095.6617   -2649.6691   -128.69822    12230.506 
   33600    297.92337    237.82676   -3094.2253   -2651.0868    20.488073    12227.437 
   33650    293.95176    237.66374   -3088.7913   -2651.5603    137.15031    12224.181 
   33700    293.47252     237.6588   -3088.6268   -2652.1087    226.23223    12220.804 
   33750    294.52232    237.67938   -3089.3127    -2651.233    266.31081    12217.366 
   33800     298.4937    237.96498   -3098.8327   -2654.8459     152.8419    12213.865 
   33850    308.18909    238.35945   -3111.9815   -2653.5736    -85.88841    12210.246 
   33900    308.70496    238.41186   -3113.7285   -2654.5533   -122.60826    12206.382 
   33950    297.51854    237.99954   -3099.9846   -2657.4484    265.66935     12202.27 
   34000    291.00209    237.78758   -3092.9195   -2660.0759    485.94808    12198.109 
   34050    292.04198     242.8747   -3095.8234    -2661.433    431.16026    12194.016 
   34100    291.34032    242.79563   -3093.1876   -2659.8409    573.69859    12189.987 
   34150      291.345    242.83175   -3094.3916    -2661.038    672.98235    12186.086 
   34200    301.00069    243.20453   -3106.8176   -2659.1019    336.12876    12182.353 
   34250     302.4094    243.24588   -3108.1961   -2658.3851    249.13796    12178.634 
   34300    302.52837    243.16213   -3105.4044   -2655.4164    407.81455    12174.879 
   34350    293.88749    242.88877   -3096.2924    -2659.157    826.65327    12171.197 
   34400    288.34422    242.73095   -3091.0315   -2662.1414    1001.2926    12167.757 
   34450     293.4695    242.97767   -3099.2558   -2662.7422    765.58989    12164.654 
   34500    303.39092    243.40725    -3113.575    -2662.304    461.59614    12161.775 
   34550    301.77895    243.33877   -3111.2922   -2662.4189    584.32687    12158.979 
   34600    294.39707    243.13354   -3104.4513   -2666.5579    763.04659    12156.325 
   34650    298.38497     243.2697   -3108.9899   -2665.1649    560.71232    12153.878 
   34700    304.38273    243.50838   -3116.9458   -2664.1996    319.28378    12151.555 
   34750    298.51286     243.2565   -3108.5498   -2664.5346    528.20222    12149.258 
   34800    294.86569    243.18496   -3106.1653   -2667.5749    644.64452    12147.061 
   34850    305.06156     243.5574   -3118.5799    -2664.824    279.59796    12144.997 
   34900     299.9262    243.39418   -3113.1393   -2667.0218    411.86014    12142.916 
   34950    296.35081    243.34022   -3111.3407   -2670.5413    505.03833    12140.868 
   35000    296.35756    243.38988   -3112.9961   -2672.1866    505.21397    12138.924 
   35050    286.70055    243.08648   -3102.8828   -2676.4375    881.51576    12137.115 
   35100    280.78545    242.85461   -3095.1536   -2677.5065    1098.8087    12135.606 
   35150    289.70297    243.26073    -3108.691   -2677.7798    733.27869    12134.486 
   35200    286.59027    243.12201   -3104.0672   -2677.7859    835.54848    12133.632 
   35250    290.07519    243.30043   -3110.0143   -2678.5494    731.24918    12133.045 
   35300    294.52518     243.5537   -3118.4568   -2680.3729    490.92554     12132.69 
   35350    305.79723    244.01316   -3133.7718   -2678.9216    70.431011    12132.417 
   35400    293.13203    243.53185   -3117.7283   -2681.7166    522.03455    12132.061 
   35450    289.07133    243.45637   -3115.2124   -2685.2407    690.20554    12131.792 
   35500    283.73472    243.19962   -3106.6539     -2684.62    825.45793    12131.741 
   35550    289.78683    243.41242   -3113.7472   -2682.7113    562.68282    12131.962 
   35600    297.51081    243.80108   -3126.7027   -2684.1779    264.56405    12132.321 
   35650    293.59341    243.64997   -3121.6657   -2684.9678    399.54299    12132.675 
   35700    291.55296    243.66914   -3122.3047   -2688.6417    403.90042    12133.065 
   35750    278.28733     243.2324   -3107.7467   -2693.8154    702.50438    12133.533 
   35800    273.49013    243.07189   -3102.3963   -2695.6005    794.46769    12134.189 
   35850    274.40709    243.09395   -3103.1315   -2694.9718    797.77476    12135.113 
   35900     286.5631    243.59485   -3119.8283   -2693.5874    376.14029    12136.298 
   35950    292.71378     243.8341   -3127.8034   -2692.4139    107.06752    12137.524 
   36000    287.85147    243.71228   -3123.7425   -2695.5853    194.55533    12138.671 
   36050    292.61024    238.90663   -3130.2212   -2694.9856   -4.1633431    12139.744 
   36100    293.27261    238.93868   -3131.2895   -2695.0687   -112.29911     12140.65 
   36150    285.41602    238.71826   -3123.9421   -2699.4074    90.103164    12141.337 
   36200     281.7275    238.55271   -3118.4236   -2699.3753    228.38316    12141.897 
   36250    295.90604    238.95676   -3131.8919   -2691.7541   -146.52795    12142.373 
   36300    287.57372    238.65879   -3121.9598   -2694.2157    72.732402    12142.641 
   36350    298.71303    239.13463   -3137.8211   -2693.5081   -312.56345    12142.729 
   36400    289.24113    238.81019   -3127.0062   -2696.7819   -61.323688    12142.514 
   36450    288.41523    238.82351   -3127.4504   -2698.4546   -19.886034    12142.062 
   36500    274.18573     238.3587   -3111.9568   -2704.1263    442.41233    12141.451 
   36550    273.07475    238.29246   -3109.7488   -2703.5708    583.33294    12140.888 
   36600    279.25629    238.47644   -3115.8815   -2700.5089    470.85188    12140.455 
   36650    291.90543    238.87866   -3129.2887   -2695.1015    88.831491    12140.095 
   36700    293.62071    238.91432   -3130.4773   -2693.7388    7.3463776    12139.625 
   36750    292.83119    238.91468   -3130.4894   -2694.9252    8.8989037    12138.983 
   36800    294.97452    238.95414   -3131.8048   -2693.0526   -34.668239     12138.16 
   36850    285.06744    238.55624   -3118.5412    -2694.525     353.2004    12137.152 
   36900     279.8924    238.40655   -3113.5515   -2697.2328    507.13445    12136.159 
   36950    301.46642    239.09945   -3136.6482   -2688.2397   -126.83975    12135.201 
   37000    291.04277    238.80366   -3126.7885   -2693.8845    213.43211    12134.032 
   37050    281.83865    233.49373   -3116.4575   -2697.2439    538.45931     12132.79 
   37100    297.09756    233.96258    -3132.086    -2690.176    72.037567    12131.603 
   37150    286.48839    233.57595   -3119.1982   -2693.0684    345.35939    12130.292 
   37200    289.64529    233.64965   -3121.6549   -2690.8295    291.40631    12128.935 
   37250    291.82171    233.70026    -3123.342   -2689.2794    274.40071    12127.549 
   37300    281.20343    233.29187   -3109.7291   -2691.4603    682.88959    12126.141 
   37350     305.6608    234.04976   -3134.9921   -2680.3448    132.94208    12124.843 
   37400    312.75273    234.12904   -3137.6346   -2672.4387     7.357235    12123.445 
   37450    304.94713    233.97068   -3132.3559   -2678.7701    230.04403    12121.861 
   37500    286.48915    233.24282   -3108.0939    -2681.963    904.51265    12120.222 
   37550    279.88091    232.89923    -3096.641   -2680.3394    1193.1489     12118.85 
   37600    299.28359    233.53231   -3117.7435   -2672.5819    618.90212     12117.88 
   37650     300.3189    233.45793   -3115.2645   -2668.5629    663.20312    12117.078 
   37700    297.65442    233.30397   -3110.1323   -2667.3939    807.56013    12116.426 
   37750    317.94733    233.96322   -3132.1074   -2659.1848    254.48212    12115.962 
   37800    313.42964    233.77793   -3125.9311   -2659.7283    424.40737    12115.475 
   37850    310.10212    233.63942    -3121.314   -2660.0606    670.72683    12114.997 
   37900    292.98095    233.02727   -3100.9091   -2665.1222    1366.6794    12114.705 
   37950    304.45083    233.35859   -3111.9531   -2659.1056    1078.1428    12114.895 
   38000    311.80849    233.58353   -3119.4511   -2655.6596    830.16894    12115.478 
   38050    298.43704    238.11072   -3103.6905   -2659.7881      1219.68     12116.35 
   38100    315.20059    238.59841    -3119.947     -2651.11    717.09011    12117.638 
   38150    310.64542    238.43166   -3114.3885    -2652.327    797.15779    12119.162 
   38200    310.84573    238.41905   -3113.9682   -2651.6088     844.3949    12120.911 
   38250    316.71605    238.62673    -3120.891   -2649.7998     714.3107    12122.918 
   38300     304.1564    238.11843   -3103.9477   -2651.5381    1128.0223    12125.169 
   38350    303.36426    238.10924   -3103.6415   -2652.4101    1134.5357    12127.832 
   38400    309.45517    238.31364   -3110.4547   -2650.1636    964.05073    12130.926 
   38450    306.77474    238.23749   -3107.9163   -2651.6121    1050.8861    12134.377 
   38500    312.88416    238.40797   -3113.5989   -2648.2074    885.71789    12138.216 
   38550    305.25275    238.08978   -3102.9926   -2648.9522     1115.282    12142.392 
   38600    308.04305    238.16323   -3105.4412   -2647.2505    898.70328    12146.973 
   38650    317.74903    238.50224   -3116.7412   -2644.1136    461.49991    12151.859 
   38700     304.0094    237.87922   -3095.9741   -2643.7832    836.95464     12156.88 
   38750    301.32287    237.93756   -3097.9187   -2649.7237    858.74075    12162.165 
   38800    296.18133    237.74803   -3091.6011   -2651.0538    1043.1354    12167.759 
   38850    303.77975    237.97352   -3099.1173    -2647.268    730.32318    12173.744 
   38900    313.93073    238.34419    -3111.473   -2644.5248    280.48741    12179.974 
   38950    311.28284    238.23973   -3107.9911   -2644.9814    271.94219    12186.218 
   39000    309.52624    238.12144    -3104.048   -2643.6511    229.68916    12192.455 
   39050    308.04392     243.1668   -3105.5601   -2647.3681    114.96962    12198.654 
   39100    295.01447    242.60337    -3086.779   -2647.9674    523.69318    12204.798 
   39150    287.38637    242.33792   -3077.9308   -2650.4653    698.47303    12211.088 
   39200    307.98553    243.10825   -3103.6083   -2645.5032   -47.499841    12217.569 
   39250    295.06356    242.65613   -3088.5375   -2649.6528    317.84258    12223.949 
   39300    284.89951    242.25756   -3075.2521   -2651.4857     689.9113    12230.351 
   39350    299.02336    242.70095   -3090.0316    -2645.257    203.54675    12236.953 
   39400     313.9421     243.2707   -3109.0232   -2642.0582   -419.83594    12243.508 
   39450    286.86699    242.31369   -3077.1229     -2650.43    373.86123    12249.778 
   39500    291.76652    242.47513   -3082.5044   -2648.5238    214.63003    12256.058 
   39550    304.76281    243.00531    -3100.177   -2646.8654   -342.81357    12262.301 
   39600    300.75295    242.87374   -3095.7914   -2648.4441   -379.77922    12268.242 
   39650    292.99021    242.68224   -3089.4081   -2653.6073    -160.0033    12273.831 
   39700    291.25184    242.60529   -3086.8431   -2653.6281   -130.11574    12279.184 
   39750    299.00031    242.80161   -3093.3871   -2648.6468   -488.06311      12284.3 
   39800    295.73325    242.59577   -3086.5256   -2646.6448   -448.37971    12289.017 
   39850    290.75569    242.43438   -3081.1461   -2648.6691   -293.15625    12293.335 
   39900    280.72345    242.08227   -3069.4089    -2651.854   -53.944252    12297.353 
   39950    291.50418    242.41763   -3080.5876   -2646.9973   -445.64577    12301.148 
   40000    286.52796    242.29749   -3076.5829   -2650.3942   -237.89375    12304.581 
   40050    285.88119     237.2494   -3074.9799   -2649.7533   -193.39632     12307.72 
   40100    299.40872    237.69903   -3089.9678     -2644.62   -610.72056    12310.553 
   40150    290.37154    237.20082   -3073.3606   -2641.4549   -318.75077    12312.917 
   40200    308.69588    237.83759   -3094.5862   -2635.4245   -936.29011    12314.851 
   40250    299.42745    237.50713    -3083.571   -2638.1953   -644.73318    12316.152 
   40300    287.83311    237.18657   -3072.8857   -2644.7558   -160.53748    12316.918 
   40350    287.01024    237.12586   -3070.8619   -2643.9559   -94.870518    12317.395 
   40400    303.57893    237.73536   -3091.1788   -2639.6281   -731.89816    12317.599 
   40450    314.01298    237.96205   -3098.7351   -2631.6646   -991.87909    12317.214 
   40500    290.77388    237.24493    -3074.831   -2642.3269    -230.1049    12316.128 
   40550    300.03218     237.5527   -3085.0899   -2638.8147   -409.62672    12314.664 
   40600    288.99282    237.14941   -3071.6472   -2641.7922   -5.2702035    12312.814 
   40650    294.61501    237.17818    -3072.606   -2634.3885   -63.719481    12310.743 
   40700    309.67768    237.71834   -3090.6112   -2629.9892   -591.13027    12308.426 
   40750    303.93639    237.55098   -3085.0325   -2632.9502   -391.49092    12305.614 
   40800    299.87534    237.35169   -3078.3896   -2632.3478   -116.73451    12302.374 
   40850    303.45514    237.47962   -3082.6542   -2631.2876   -109.71355     12298.84 
   40900    300.76607    237.29719   -3076.5731   -2629.2063    14.785037    12295.058 
   40950    311.75924    237.62713   -3087.5711   -2623.8529    -313.5495    12291.052 
   41000    315.24276    237.80897   -3093.6323   -2624.7326   -373.29369    12286.666 
   41050     303.4171    237.33568    -3077.856   -2626.5461    134.55332     12281.89 
   41100    289.42418     236.9189   -3063.9634   -2633.4669    622.30542    12276.992 
   41150     299.7183    237.23599   -3074.5328   -2628.7246    409.58614     12272.19 
   41200    311.00097    237.54411   -3084.8036   -2622.2133    182.91351    12267.402 
   41250    305.04774    237.24134   -3074.7113   -2620.9759    481.88464    12262.527 
   41300    306.39985    237.27678   -3075.8927   -2620.1461    573.11789    12257.691 
   41350    313.06131    237.35471   -3078.4903   -2612.8353    604.76545    12252.963 
   41400    313.54373    237.34259   -3078.0864   -2611.7138    675.47668    12248.352 
   41450    306.26097    237.10001   -3070.0002   -2614.4602     895.7267     12243.91 
   41500     323.9799    237.57236   -3085.7454   -2603.8499    526.91375    12239.707 
   41550    313.99147    237.17383    -3072.461   -2605.4225    828.20153    12235.627 
   41600    322.65365    237.48306   -3082.7685   -2602.8457     471.8805    12231.733 
   41650    312.07692    237.00895   -3066.9651   -2602.7744     881.3663    12227.926 
   41700    324.56263    237.39437   -3079.8125   -2597.0501     718.9065    12224.338 
   41750    325.55178    237.40391   -3080.1303   -2595.8966    773.33473    12220.961 
   41800     324.6866    237.36429   -3078.8096   -2595.8629    927.31824    12217.798 
   41850    334.65917    237.58556   -3086.1854   -2588.4053     807.7349    12214.904 
   41900    327.44306     237.2769   -3075.8967     -2588.85    1176.4752    12212.261 
   41950    321.58102    237.06207   -3068.7358   -2590.4084    1388.2649    12210.049 
   42000    325.68224    237.22277   -3074.0923   -2589.6646    1241.2614    12208.353 
   42050    322.04684    237.22244   -3074.0812    -2595.061    1335.1667    12207.145 
   42100    317.81905    236.99211   -3066.4036   -2593.6718    1613.3583    12206.488 
   42150    327.24369    237.16068   -3072.0228   -2585.2726    1399.7474    12206.463 
   42200    331.57236     237.3166   -3077.2199   -2584.0311    1183.3452    12207.004 
   42250    324.45486    237.05097   -3068.3656   -2585.7636    1295.3934    12208.007 
   42300    322.46031    237.02259   -3067.4197   -2587.7845    1266.1702    12209.497 
   42350      312.874    236.68373   -3056.1242   -2590.7479    1564.5978    12211.516 
   42400     325.9445    237.12293   -3070.7643   -2585.9465    1273.3326    12214.165 
   42450    318.88565    236.89687   -3063.2292   -2588.9109    1403.6705    12217.343 
   42500    340.97803    237.66469    -3088.823   -2581.6441    568.07136    12221.042 
   42550    323.19332    237.08309   -3069.4363   -2588.7107    980.90168    12224.963 
   42600    326.35467    237.21499   -3073.8331   -2588.4052    844.94376     12229.19 
   42650    330.28781    237.32148   -3077.3826   -2586.1045    669.13696    12233.705 
   42700    316.83108    236.88383   -3062.7942    -2591.532    1039.9615    12238.426 
   42750      314.485    236.90519   -3063.5064   -2595.7338    1047.2808    12243.529 
   42800    328.51675    237.44624   -3081.5413   -2592.8976     531.2914    12249.018 
   42850    322.36036    237.26209    -3075.403   -2595.9164    633.26124    12254.659 
   42900    321.90182    237.38672   -3079.5573   -2600.7528    476.24181    12260.448 
   42950    303.87374    236.76099   -3058.6997   -2606.7105    849.30198    12266.364 
   43000    303.16224    236.79614   -3059.8713   -2608.9405    738.87956    12272.552 
   43050    300.99421     236.7998   -3059.9934   -2612.2873    682.01823    12278.998 
   43100    300.26462    236.93033   -3064.3443   -2617.7234    516.85378    12285.659 
   43150     321.2854     237.6861   -3089.5366   -2611.6489   -295.24019    12292.407 
   43200    314.55161     237.4738   -3082.4602   -2614.5885   -214.61755    12298.885 
   43250    304.61391    237.17684   -3072.5612   -2619.4711   -91.627731    12305.071 
   43300    303.27541    237.17366   -3072.4554   -2621.3562   -229.93027    12311.027 
   43350    299.50992    237.10208   -3070.0694   -2624.5711   -281.39008    12316.718 
   43400    312.45463    237.63094   -3087.6982   -2622.9456   -797.32838    12322.038 
   43450    300.27081     237.1299   -3070.9966   -2624.3665   -360.03109    12326.804 
   43500    295.58311    236.99844   -3066.6147   -2626.9572   -158.90041    12331.173 
   43550     296.1223    237.02144   -3067.3813   -2626.9218   -201.59452    12335.272 
   43600    297.54236     237.0507   -3068.3565   -2625.7848   -293.91131    12339.094 
   43650    305.53931    237.38338    -3079.446   -2624.9794   -618.04857    12342.557 
   43700    308.46594    237.50367   -3083.4555   -2624.6358   -796.27852    12345.496 
   43750    301.14224    237.37533   -3079.1775   -2631.2513   -698.10157    12347.816 
   43800    297.45809    237.21981   -3073.9937   -2631.5473   -629.98498    12349.561 
   43850    291.33675    236.96433   -3065.4776   -2632.1363   -444.66439    12350.787 
   43900    295.97295    237.18442   -3072.8141   -2632.5768   -598.37791    12351.565 
   43950    309.13173    237.71288   -3090.4292   -2630.6192   -1033.6716    12351.802 
   44000    295.36257    237.26344    -3075.448   -2636.1186   -590.46625    12351.318 
[...]
   89400    307.37486    242.70672   -3090.2241   -2633.0273    -312.7842    12283.266 
   89450    302.91294    242.56237   -3085.4122   -2634.8521   -139.36498    12279.919 
   89500    284.95561    242.02489   -3067.4964   -2643.6465     483.4203     12276.35 
   89550     297.0445    242.40977   -3080.3255   -2638.4944    258.58238    12272.839 
   89600     294.4771    242.31736   -3077.2452   -2639.2329    469.79399    12269.327 
   89650    289.99599    242.17787   -3072.5958   -2641.2487    688.14026    12265.901 
   89700    299.37389     242.5089   -3083.6301   -2638.3341    375.65826    12262.666 
   89750    303.75162    242.69575   -3089.8582   -2638.0507    197.83683    12259.482 
   89800    296.81199    242.39959   -3079.9864   -2638.5011    440.90788    12256.254 
   89850     306.4219    242.76336   -3092.1121   -2636.3328    159.41905    12253.066 
   89900    305.78248    242.76663    -3092.221   -2637.3928    172.61198    12249.823 
   89950    300.22738    242.60549   -3086.8496   -2640.2841    283.38978    12246.486 
   90000    288.14836    242.16525    -3072.175   -2643.5761    656.64478    12243.139 
   90050    284.14187    242.07294   -3069.0978   -2646.4583    835.88574    12239.964 
   90100    278.30445    241.78929   -3059.6428   -2645.6861    1083.1218    12237.106 
   90150    306.72158    242.91965   -3097.3215   -2641.0964    106.92881    12234.586 
   90200    302.41576    242.75659   -3091.8863   -2642.0658    176.62981    12232.026 
   90250    315.97757    243.22908    -3107.636   -2637.6434   -113.33308    12229.339 
   90300    307.07801     242.8761   -3095.8701   -2639.1148    288.58821    12226.466 
   90350    300.44703    242.72917   -3090.9724   -2644.0803    499.25334    12223.545 
   90400    293.43605     242.5052   -3083.5066   -2647.0427    680.96576    12220.728 
   90450    298.55193    242.64781   -3088.2602   -2644.1869    588.78834    12218.092 
   90500    291.97351    242.39916   -3079.9721   -2645.6836    837.70498    12215.638 
   90550    297.73294    242.66204   -3088.7348   -2645.8796    712.72617    12213.454 
   90600    297.79203     242.6998   -3089.9935   -2647.0504    675.78227    12211.486 
   90650    306.62043    243.01169   -3100.3898   -2644.3151    259.71279    12209.675 
   90700    296.34979    242.72176   -3090.7252   -2649.9274    479.61168    12207.877 
   90750    298.32024    242.77911    -3092.637   -2648.9082    418.29586    12206.163 
   90800    300.32974    242.79529   -3093.1762   -2646.4585     357.0531    12204.509 
   90850    300.93873    242.84084   -3094.6948   -2647.0713    406.49243    12202.865 
   90900    294.47547    242.65902   -3088.6339   -2650.6239    628.29159    12201.291 
   90950    309.97825    243.10605   -3103.5349   -2642.4658    182.40065    12199.843 
   91000    302.16521    242.86315   -3095.4384   -2645.9905    342.16793    12198.364 
   91050    311.09474    238.22529   -3107.5096   -2644.7798    85.542145    12196.847 
   91100    312.80061    238.33948   -3111.3159   -2646.0487    86.253433    12195.201 
   91150    296.48706    237.76822   -3092.2739   -2651.2718     595.7091    12193.436 
   91200    307.84759    238.21438   -3107.1459    -2649.246    317.35975    12191.741 
   91250    291.56706    237.72873   -3090.9578   -2657.2739    809.23219    12190.097 
   91300    292.96626    237.82609   -3094.2031    -2658.438    694.24036    12188.672 
   91350     293.4921    237.86332   -3095.4442   -2658.8969    625.93054    12187.457 
   91400    303.36619    238.19466   -3106.4887   -2655.2544    353.06437    12186.391 
   91450      317.145    238.65201   -3121.7335   -2650.0044   -45.272078    12185.314 
   91500    306.56654    238.41715   -3113.9052   -2657.9107    199.34216    12184.048 
   91550    304.18974    238.37432   -3112.4773   -2660.0181    219.48104    12182.689 
   91600    291.17565    237.88538   -3096.1795   -2663.0777    471.84148    12181.302 
   91650    311.19083    238.65356   -3121.7852   -2658.9124   -304.22415    12179.907 
   91700    295.86158    238.20841   -3106.9469   -2666.8753    136.18465    12178.234 
   91750    283.70132    237.89262   -3096.4208   -2674.4366    556.80204    12176.459 
   91800     299.2844    238.53198   -3117.7327   -2672.5699      25.3027    12174.752 
   91850    292.02867    238.30805   -3110.2685   -2675.8979    218.58496    12172.913 
   91900    288.32788    238.26564   -3108.8545   -2679.9886    294.52137    12170.998 
   91950    292.23696    238.42415   -3114.1384   -2679.4581    82.346575     12169.05 
   92000    284.15776    238.23337   -3107.7789   -2685.1158    290.94244    12166.987 
   92050    292.27207    233.60921   -3120.3071   -2685.5746    28.187597    12164.873 
   92100    303.63538    233.98863   -3132.9542   -2681.3196   -275.67329    12162.568 
   92150    299.55254    233.89635   -3129.8783   -2684.3166   -125.72437    12159.932 
   92200    294.00729    233.77514   -3125.8382   -2688.5246     28.52302    12157.015 
   92250    286.26157    233.54852    -3118.284   -2692.4916    253.13102    12153.921 
   92300    304.06568    234.17302   -3139.1007   -2686.8261   -281.67509    12150.727 
   92350    303.01821    234.10715   -3136.9051   -2686.1884   -180.49937    12147.204 
   92400    288.38947    233.63303    -3121.101   -2692.1435    311.16622    12143.385 
   92450    273.93539    233.21484   -3107.1612    -2699.703    720.14538    12139.538 
   92500      282.997    233.58413   -3119.4709   -2698.5344    431.54145    12135.852 
   92550    296.76628    234.11944   -3137.3145   -2695.8972   -21.307546    12132.201 
   92600    299.24219    234.14726    -3138.242   -2693.1419   -69.591909    12128.366 
   92650    290.44373    233.92693   -3130.8977   -2698.8846    357.56111    12124.311 
   92700    277.98935    233.51276   -3117.0921    -2703.604    885.83798    12120.253 
   92750    285.58415    233.73154   -3124.3847   -2699.5999    664.19475    12116.453 
   92800    298.43105    234.25107   -3141.7023   -2697.8087    170.19027    12112.798 
   92850    299.35432    234.30428   -3143.4759   -2698.2091     54.18624    12109.041 
   92900    283.84654    233.83902   -3127.9674   -2705.7672    490.82712    12105.162 
   92950    302.51005    234.47095   -3149.0316   -2699.0708     -8.36426    12101.289 
   93000     298.7524    234.38148   -3146.0495   -2701.6779    141.66575    12097.249 
   93050    280.62889    233.70734    -3123.578   -2706.1638    737.28578    12093.117 
   93100    295.60827    234.19828   -3139.9426   -2700.2478    341.54765    12089.127 
   93150    305.13767    234.58315   -3152.7718   -2698.9027     93.72549     12085.13 
   93200    291.37346    234.13658    -3137.886   -2704.4901    573.62699    12081.016 
   93250    294.71208    234.18586   -3139.5285   -2701.1666    588.57997    12076.976 
   93300     291.7224    234.07268   -3135.7559   -2701.8409    708.41265     12073.07 
   93350     294.8272    234.13906   -3137.9687   -2699.4356    623.48106    12069.331 
   93400    299.18324    234.39032   -3146.3441   -2701.3317    391.58199    12065.733 
   93450    295.67804    234.26139   -3142.0464   -2702.2477    568.64343    12062.158 
   93500    277.97288    233.59306   -3119.7688   -2706.3052    1235.2347    12058.716 
   93550    283.90042    233.83443   -3127.8142   -2705.5339    1063.3456    12055.705 
   93600    291.36649    234.06382   -3135.4608   -2702.0752    908.72306    12053.074 
   93650    290.33514    234.09859   -3136.6198   -2704.7683    903.21136    12050.726 
   93700    302.55102     234.5386   -3151.2868   -2701.2651    514.03277    12048.641 
   93750    305.80379    234.56712   -3152.2373   -2697.3773     419.8105    12046.666 
   93800    308.22745    234.52436    -3150.812    -2692.347    398.26575    12044.705 
   93850    295.30383    233.97933   -3132.6444   -2693.4024    869.33033    12042.785 
   93900    295.77167    234.12915   -3137.6384   -2697.7005    907.78726    12041.093 
   93950    288.89139    233.87605   -3129.2015   -2699.4975    1174.2747    12039.716 
   94000    287.45181     233.8263   -3127.5434   -2699.9806    1258.0335    12038.775 
   94050    299.74941    234.21289   -3140.4296    -2694.575    971.45529    12038.268 
   94100    301.17799      234.181   -3139.3666   -2691.3872    956.17312    12038.102 
   94150    310.14664    234.51352   -3150.4506   -2689.1309    639.95187    12038.241 
   94200     311.5811    234.56452   -3152.1508   -2688.6975    624.61489    12038.526 
   94250    295.28072    233.95583    -3131.861   -2692.6533    1267.0883    12038.972 
   94300    281.91022    233.54512   -3118.1708   -2698.8507    1758.4616     12039.89 
   94350    280.03727    233.51154   -3117.0512    -2700.517    1781.3872    12041.533 
   94400    294.19068    233.91674   -3130.5581   -2692.9718    1299.9942     12043.89 
   94450    297.46132    234.02301   -3134.1005   -2691.6493    1149.5875    12046.772 
   94500    304.41536    234.20349   -3140.1164   -2687.3216     953.6686    12050.074 
   94550    299.00045    233.94837   -3131.6124   -2686.8719    1058.4784    12053.716 
   94600    309.81747    234.24469   -3141.4898   -2680.6598    637.57941    12057.694 
   94650    307.65366    234.17797   -3139.2657   -2681.6542    615.90599    12061.832 
   94700     292.7712    233.74129   -3124.7098   -2689.2348    1003.4007    12066.142 
   94750     300.3433     233.9291     -3130.97   -2684.2321    736.87819    12070.767 
   94800    309.63712    234.14607   -3138.2022   -2677.6405    501.06649    12075.605 
   94850    305.46121    233.90001   -3130.0002   -2675.6498    709.76537     12080.54 
   94900    295.87617     233.6055   -3120.1834   -2680.0901     947.1159     12085.67 
   94950    301.77242    233.75101   -3125.0336     -2676.17     756.9522    12091.101 
   95000    307.95135    233.97849   -3132.6162   -2674.5619    516.22718    12096.744 
   95050    303.69561    228.65584   -3121.8612    -2670.137    671.39851      12102.5 
   95100    311.54935     228.9059   -3130.1966   -2666.7905    442.23686    12108.377 
   95150    300.87503    228.52062   -3117.3541   -2669.8252    714.69829    12114.317 
   95200    294.69923     228.1796   -3105.9866   -2667.6438    949.37241     12120.43 
   95250    304.05618    228.48603   -3116.2009   -2663.9404    653.39542    12126.839 
   95300    310.80593    228.59312   -3119.7707   -2657.4704    452.49458    12133.415 
   95350    310.91067    228.51008   -3117.0026   -2654.5465    489.67574    12140.027 
   95400    306.02951     228.3272   -3110.9068   -2655.7111    602.83309    12146.714 
   95450     323.7138     228.9574   -3131.9132   -2650.4135    15.991703    12153.487 
   95500    322.24657    228.85044    -3128.348   -2649.0306    18.240929    12160.081 
   95550    294.06601    227.90006   -3096.6687   -2659.2678    736.14924    12166.536 
   95600    320.70114    228.68827   -3122.9424   -2645.9238    35.886285    12173.079 
   95650    295.22661    227.75455   -3091.8183    -2652.691    895.10602    12179.533 
   95700    297.30342    227.76394   -3092.1315   -2649.9152    817.39905    12186.214 
   95750      317.649    228.30379   -3110.1262   -2637.6474    175.48736    12193.101 
   95800    301.66564    227.76371   -3092.1235   -2643.4188    686.07876    12199.925 
   95850    302.47348    227.83407   -3094.4691   -2644.5627    591.68453    12206.879 
   95900    305.93102    227.80372   -3093.4574   -2638.4082    318.35198     12213.95 
   95950    301.59988    227.62688   -3087.5627   -2638.9558    332.08197    12220.992 
   96000    321.45192    228.30559   -3110.1865   -2632.0511   -289.34915    12227.953 
   96050    306.51715    232.82825    -3094.275   -2638.3539    157.01228    12234.616 
   96100    304.74213    232.71753   -3090.5845   -2637.3036    223.57375    12241.155 
   96150    310.56172    232.89009   -3096.3365   -2634.3994   0.46621495    12247.608 
   96200    302.85879    232.53471   -3084.4904   -2634.0109    147.96872    12253.895 
   96250    304.25678    232.53513   -3084.5042   -2631.9453    32.446668    12260.042 
   96300    305.55904    232.56216   -3085.4053   -2630.9093   -101.00095    12266.015 
   96350    309.82231    232.67219   -3089.0729   -2628.2357   -279.40228    12271.742 
   96400     302.9024      232.422   -3080.7334   -2630.1891   -126.05264    12277.117 
   96450    308.32707    232.69118    -3089.706   -2631.0929   -303.25023    12282.196 
   96500    296.28805    232.22007   -3074.0022   -2633.2962    188.69627    12286.965 
   96550     305.7762    232.51786   -3083.9288   -2629.1098   -16.359917    12291.587 
   96600    298.18606    232.27333   -3075.7777   -2632.2486    122.14517    12296.028 
   96650    303.81398    232.42701   -3080.9002   -2628.9999   -121.50958    12300.298 
   96700     303.4119    232.38866    -3079.622   -2628.3198   -149.37928    12304.314 
   96750    310.11481    232.58492    -3086.164   -2624.8918   -419.74352    12308.037 
   96800    312.77803    232.67069    -3089.023   -2623.7894   -530.85927    12311.317 
   96850    293.79253    232.04603   -3068.2011    -2631.207    3.6876598    12314.135 
   96900    311.97867    232.65828   -3088.6095   -2624.5649   -562.02617    12316.689 
   96950    295.29852    232.12961   -3070.9868   -2631.7527   -109.31823    12318.801 
   97000    302.38594    232.37937   -3079.3125   -2629.5363   -262.62487    12320.593 
   97050    299.52512    227.32704   -3077.5681   -2632.0472   -252.66639    12322.042 
   97100    297.20411    227.25716   -3075.2387   -2633.1701   -213.89325    12323.137 
   97150    296.38865    227.19452   -3073.1506    -2632.295   -110.15232    12323.896 
   97200    299.30914    227.30122   -3076.7072   -2631.5076   -251.11469    12324.352 
   97250    310.30574     227.6931   -3089.7701   -2628.2138   -661.96945    12324.427 
   97300    304.01382    227.50551   -3083.5169   -2631.3194   -496.64965    12323.937 
   97350    308.39575    227.51431   -3083.8104   -2625.0951   -592.75751    12322.943 
   97400    315.77249    227.80812   -3093.6039   -2623.9162   -720.02483    12321.378 
   97450    300.00975    227.26895   -3075.6316   -2629.3898   -200.66134    12319.234 
   97500    310.08749    227.65587   -3088.5291   -2627.2974   -558.69587    12316.704 
   97550    310.62092    227.70591   -3090.1969   -2628.1718   -600.73918    12313.654 
   97600    312.62951    227.77603   -3092.5343   -2627.5216    -594.5138     12310.04 
   97650    316.15604    227.91574   -3097.1912   -2626.9331   -680.72628     12305.85 
   97700    310.79126    227.71322   -3090.4408   -2628.1624   -519.33637    12301.052 
   97750    308.29446    227.65576   -3088.5252   -2629.9606   -466.23177    12295.731 
   97800    299.91824    227.40784   -3080.2614   -2634.1557   -173.42066    12289.945 
   97850     307.7129    227.68671   -3089.5571   -2631.8574   -349.20876    12283.803 
   97900     305.4749    227.60774   -3086.9248   -2632.5541   -302.28032    12277.261 
   97950    297.86284    227.46859   -3082.2863   -2639.2379    -61.88298    12270.325 
   98000    313.63505    227.99888   -3099.9625   -2633.4542   -437.99062    12263.098 
   98050    322.23899    233.26224   -3108.7414   -2629.4353   -661.75479     12255.41 
   98100    300.13026     232.5418   -3084.7267   -2638.3057    63.116343    12247.192 
   98150    299.51872    232.64644   -3088.2146   -2642.7032     297.9257    12238.757 
   98200    295.46667    232.44794   -3081.5981   -2642.1139    619.53967    12230.305 
   98250     309.6875    232.98897   -3099.6322   -2638.9955    234.85517    12221.927 
   98300    295.16088    232.44438   -3081.4793   -2642.4499    675.16323     12213.52 
   98350    315.73829    233.30033    -3110.011   -2640.3743    38.858445    12205.206 
   98400    307.42208    232.98848   -3099.6159   -2642.3489    331.97724    12196.785 
   98450    319.74415    233.47645   -3115.8817   -2640.2865    92.933255    12188.286 
   98500    317.49589    233.42355   -3114.1183   -2641.8673    288.48783    12179.649 
   98550     297.8249    232.75716   -3091.9054   -2648.9134    946.19269    12170.994 
   98600    312.96008    233.29342   -3109.7805   -2644.2761    529.35195    12162.584 
   98650    306.61169    233.05987   -3101.9956   -2645.9339    827.93428    12154.281 
   98700    301.49737    232.89002    -3096.334   -2647.8795    1086.4271    12146.231 
   98750    311.59295    233.34061   -3111.3535   -2647.8826    815.19729    12138.536 
   98800    292.50594    232.73502   -3091.1673   -2656.0869    1355.0054    12131.125 
   98850     324.7808    233.84902   -3128.3007   -2645.2139    443.39325    12124.143 
   98900    306.17406    233.29185   -3109.7282   -2654.3175    1113.4399     12117.29 
   98950     297.9323    233.08025   -3102.6749   -2659.5231    1430.8112    12110.798 
   99000    303.00698    233.15586   -3105.1953   -2654.4954    1204.3751    12104.863 
   99050    308.73919    238.42282   -3114.0942    -2654.868    1003.8198    12099.371 
   99100    310.49346    238.54981   -3118.3269   -2656.4914    1064.2039    12094.233 
   99150    302.67752    238.29423   -3109.8077   -2659.5978    1379.3926      12089.5 
   99200    307.47299    238.44972   -3114.9908    -2657.648     1218.763    12085.287 
   99250    316.39834    238.81327   -3127.1089   -2656.4904    852.95346    12081.529 
   99300    314.67148    238.77369   -3125.7897   -2657.7397    977.28717    12078.059 
   99350    299.82281    238.25231   -3108.4103   -2662.4466    1538.4402    12074.949 
   99400    305.46888    238.54701   -3118.2335   -2663.8717    1339.2161    12072.428 
   99450    304.78947     238.5787   -3119.2901   -2665.9388    1401.3933    12070.445 
   99500      296.447    238.27358   -3109.1193   -2668.1768    1725.3875    12069.045 
   99550    312.38177    238.82554    -3127.518   -2662.8738    1287.9688    12068.343 
   99600    302.58011    238.58727   -3119.5757   -2669.5107    1609.1415    12068.182 
   99650    291.16163    238.28994   -3109.6645   -2676.5837    1885.3651    12068.688 
   99700    301.95273    238.71107   -3123.7024   -2674.5706    1373.1369    12069.981 
   99750    301.70403    238.58582   -3119.5275   -2670.7656    1296.1265    12071.864 
   99800    305.57598    238.76025   -3125.3417   -2670.8206     1133.137    12074.237 
   99850    278.27737    237.89856   -3096.6186   -2682.7021    1857.6172    12077.093 
   99900    301.27359    238.76905   -3125.6351   -2677.5135    1023.0828    12080.662 
   99950    303.19047    238.74492   -3124.8306   -2673.8578     925.9075    12084.658 
  100000    295.98905    238.43238   -3114.4128   -2674.1515    1252.4681    12088.971 
Loop time of 27.0847 on 1 procs for 100000 steps with 500 atoms

Performance: 319.000 ns/day, 0.075 hours/ns, 3692.126 timesteps/s
98.6% CPU use with 1 MPI tasks x 1 OpenMP threads

MPI task timing breakdown:
Section |  min time  |  avg time  |  max time  |%varavg| %total
---------------------------------------------------------------
Pair    | 22.059     | 22.059     | 22.059     |   0.0 | 81.44
Bond    | 0.0073638  | 0.0073638  | 0.0073638  |   0.0 |  0.03
Neigh   | 0.53688    | 0.53688    | 0.53688    |   0.0 |  1.98
Comm    | 0.78596    | 0.78596    | 0.78596    |   0.0 |  2.90
Output  | 0.018403   | 0.018403   | 0.018403   |   0.0 |  0.07
Modify  | 2.7927     | 2.7927     | 2.7927     |   0.0 | 10.31
Other   |            | 0.8848     |            |       |  3.27

Nlocal:    500 ave 500 max 500 min
Histogram: 1 0 0 0 0 0 0 0 0 0
Nghost:    1565 ave 1565 max 1565 min
Histogram: 1 0 0 0 0 0 0 0 0 0
Neighs:    14559 ave 14559 max 14559 min
Histogram: 1 0 0 0 0 0 0 0 0 0

Total # of neighbors = 14559
Ave neighs/atom = 29.118
Ave special neighs/atom = 0
Neighbor list builds = 644
Dangerous builds = 0

write_data      ${walker}/final_restart_file
write_data      14/final_restart_file

quit
