LAMMPS (19 May 2017)
Processor partition = 14
  using 1 OpenMP thread(s) per MPI task
# gREM variables
variable        lambda world 1000 1005 1010 1015 1020 1025 1030 1035 1040 1045 1050 1055 1060 1065 1070 1075
variable        walker world 0 1 2 3 4 5 6 7 8 9 10 11 12 13 14 15
variable        replica world 1 3 7 2 4 6 5 8 11 14 0 10 12 13 9 15

variable        T0 equal 300.0
variable        press equal 0.0

units           real
atom_style      full
pair_style      lj/cut 5.0

# LJ particles
read_data       ${walker}/restart_file
read_data       14/restart_file
  orthogonal box = (1.02464 1.02464 1.02464) to (23.9754 23.9754 23.9754)
  1 by 1 by 1 MPI processor grid
  reading atoms ...
  500 atoms
  reading velocities ...
  500 velocities
  0 = max # of 1-2 neighbors
  0 = max # of 1-3 neighbors
  0 = max # of 1-4 neighbors
  1 = max # of special neighbors

#dump            dump all xyz 1000 ${walker}/dump.xyz

fix             fxnpt all npt temp ${T0} ${T0} 1000.0 iso ${press} ${press} 10000.0
fix             fxnpt all npt temp 300 ${T0} 1000.0 iso ${press} ${press} 10000.0
fix             fxnpt all npt temp 300 300 1000.0 iso ${press} ${press} 10000.0
fix             fxnpt all npt temp 300 300 1000.0 iso 0 ${press} 10000.0
fix             fxnpt all npt temp 300 300 1000.0 iso 0 0 10000.0
fix             fxgREM all grem ${lambda} -.03 -30000 fxnpt
fix             fxgREM all grem 1070 -.03 -30000 fxnpt
thermo_modify   press fxgREM_press

thermo          50
thermo_style    custom step temp f_fxgREM pe etotal press vol
WARNING: New thermo_style command, previous thermo_modify settings will be lost (../output.cpp:705)
timestep        1.0

temper/grem     100000 1000 ${lambda} fxgREM fxnpt 10294 98392 ${walker}
temper/grem     100000 1000 1070 fxgREM fxnpt 10294 98392 ${walker}
temper/grem     100000 1000 1070 fxgREM fxnpt 10294 98392 14
Neighbor list info ...
  update every 1 steps, delay 10 steps, check yes
  max neighbors/atom: 2000, page size: 100000
  master list distance cutoff = 7
  ghost atom cutoff = 7
  binsize = 3.5, bins = 7 7 7
  1 neighbor lists, perpetual/occasional/extra = 1 0 0
  (1) pair lj/cut, perpetual
      attributes: half, newton on
      pair build: half/bin/newton
      stencil: half/bin/3d/newton
      bin: standard
Per MPI rank memory allocation (min/avg/max) = 5.721 | 5.721 | 5.721 Mbytes
Step Temp f_fxgREM PotEng TotEng Press Volume 
       0    295.98905    263.43238   -3114.4128   -2674.1515    1252.4681    12088.971 
      50    294.72622    263.47726   -3115.9086   -2677.5257    1270.1367    12089.265 
     100    273.79176    262.66444   -3088.8147   -2681.5702     1925.808    12090.177 
     150    281.06931    262.98395   -3099.4651   -2681.3958     1659.393    12091.957 
     200    295.24374    263.49088   -3116.3627     -2677.21    1122.2818    12094.525 
     250    296.40895    263.46298   -3115.4327   -2674.5468      1000.93    12097.602 
     300     277.9974    262.80687   -3093.5624   -2680.0624    1569.0618    12101.145 
     350    272.07638    262.57879   -3085.9596   -2681.2666    1778.8464    12105.403 
     400    277.63527      262.775      -3092.5   -2679.5386    1479.4187    12110.499 
     450    294.55521    263.32677   -3110.8922   -2672.7637     738.2733    12116.272 
     500    295.99871    263.34364   -3111.4547   -2671.1791     675.6315    12122.359 
     550     279.6672    262.73315   -3091.1051   -2675.1214     1243.811    12128.744 
     600    286.38885    262.88716   -3096.2388   -2670.2571    1083.5912    12135.658 
     650    271.65331     262.3025   -3076.7501   -2672.6864    1618.0592    12143.095 
     700    270.38935    262.23932    -3074.644   -2672.4604    1632.9407    12151.286 
     750    287.67295    262.83906   -3094.6354   -2666.7437    987.75209    12160.233 
     800    276.34649    262.51865   -3083.9551   -2672.9106    1218.0594    12169.669 
     850    293.03082    263.04726   -3101.5753   -2665.7142    664.53749    12179.606 
     900    283.09239    262.57522   -3085.8407   -2664.7622    998.11647    12189.867 
     950    280.09002    262.28854   -3076.2848   -2659.6722    1136.3145    12200.556 
    1000    279.56278    262.17141   -3072.3802   -2656.5517    1044.6392    12211.754 
    1050    288.81148    262.47914   -3082.6379   -2653.0527    470.17972    12223.401 
    1100    296.82602    262.80817   -3093.6057   -2652.0995    73.728773    12235.195 
    1150    271.77978    261.71178   -3057.0592   -2652.8074    967.41108    12247.006 
    1200    282.44869    262.01522   -3067.1739   -2647.0528    641.10167    12259.166 
    1250    282.51593     261.9468   -3064.8932   -2644.6722    516.59356    12271.599 
    1300    282.31113     261.8261   -3060.8701   -2640.9537    483.67532    12284.203 
    1350     268.1386    261.22673   -3040.8911   -2642.0552    950.93974    12296.999 
    1400    277.77279    261.57116   -3052.3721   -2639.2061    534.26135    12310.158 
    1450    281.62586     261.6572     -3055.24   -2636.3429    225.68061    12323.523 
    1500    284.48421    261.66193   -3055.3977    -2632.249   -39.792552    12336.887 
    1550    290.12516    261.91509   -3063.8362    -2632.297    -393.4157    12350.099 
    1600    281.78123    261.49225   -3049.7417   -2630.6135   -148.19823    12363.009 
    1650    278.95334    261.26949   -3042.3165   -2627.3945   -55.038932    12375.685 
    1700    291.00614    261.72077   -3057.3589   -2624.5093   -622.64188    12388.177 
    1750    298.57657    261.90799   -3063.5998   -2619.4898    -970.1607    12400.192 
    1800    285.87018    261.49717   -3049.9058   -2624.6956   -682.70778    12411.551 
    1850    290.97175     261.6352   -3054.5065   -2621.7081   -961.85537    12422.363 
    1900    281.59651    261.25773   -3041.9244   -2623.0709   -693.23265    12432.529 
    1950    284.22495    261.28998   -3042.9993   -2620.2362   -792.03235    12442.136 
    2000     296.0683    261.62275   -3054.0915   -2613.7123   -1180.6818    12451.135 
    2050    283.25782    260.97905   -3032.6351   -2611.3105    -665.5171    12459.373 
    2100    282.25237    260.92627   -3030.8757   -2611.0467   -659.33335     12467.06 
    2150    288.39754    261.11323   -3037.1077   -2608.1382   -994.71615    12474.213 
    2200    280.96507    260.87092   -3029.0307   -2611.1164   -822.48885    12480.685 
    2250    277.99885    260.65233   -3021.7444   -2608.2421   -660.27878    12486.559 
    2300    278.21221    260.60978   -3020.3261   -2606.5065   -649.07766    12491.915 
    2350    273.89366    260.41011   -3013.6703   -2606.2742   -542.81159    12496.781 
    2400    284.74559    260.80652   -3026.8841   -2603.3466   -1004.0819    12501.179 
    2450    290.97377    260.96943   -3032.3142   -2599.5127   -1230.1824     12504.89 
    2500    285.29975    260.75364   -3025.1213   -2600.7595   -1076.1681    12507.799 
    2550     302.8713     261.3287     -3044.29   -2593.7919   -1571.6214    12509.905 
    2600    287.64841    260.69505   -3023.1683   -2595.3131   -933.17552    12511.052 
    2650    284.98662     260.5518   -3018.3933   -2594.4973   -725.46002    12511.523 
    2700    283.78517    260.35288   -3011.7625   -2589.6536   -639.41749    12511.472 
    2750    290.71522    260.73665   -3024.5549   -2592.1381   -838.89421    12510.912 
    2800    287.33929    260.58971   -3019.6571   -2592.2617   -634.11506    12509.794 
    2850    292.83031    260.75508   -3025.1694   -2589.6065   -792.15986    12508.174 
    2900    294.10766    260.82382   -3027.4608   -2589.9979   -902.46298    12505.997 
    2950    285.69014    260.42346   -3014.1153   -2589.1729   -588.61951    12503.217 
    3000    290.17043    260.50719   -3016.9064   -2585.2999   -584.71065    12499.966 
    3050    292.73841    265.52884   -3017.6282   -2582.2019   -385.84736    12496.291 
    3100    287.18234    265.28112   -3009.3705   -2582.2086    84.409281    12492.318 
    3150    272.77754    264.72827   -2990.9424   -2585.2065    642.01397     12488.32 
    3200    297.02152    265.58631   -3019.5435   -2577.7465   -125.98347    12484.527 
    3250    300.91281    265.69182   -3023.0608   -2575.4758   -293.00465    12480.632 
    3300     300.5151    265.72515   -3024.1716   -2577.1781   -225.77054    12476.469 
    3350    285.38678    265.13614   -3004.5381   -2580.0469     401.3208    12472.134 
    3400    296.40351    265.49203   -3016.4011   -2575.5233    187.23349    12467.891 
    3450    294.86552    265.41937    -3013.979   -2575.3889    337.01805    12463.699 
    3500    308.04722    265.87776   -3029.2586   -2571.0617    8.1360885    12459.577 
    3550    315.86288    266.14618    -3038.206   -2568.3839   -118.10207    12455.384 
    3600    302.81014    265.53865   -3017.9549   -2567.5478    503.35759    12451.086 
    3650    307.66115    265.73605   -3024.5351   -2566.9125    401.90995     12446.94 
    3700    309.31713    265.82552   -3027.5174   -2567.4316    280.60002    12442.934 
    3750    297.26425    265.28184   -3009.3946   -2567.2366    736.48646    12439.017 
    3800    295.77124     265.0815   -3002.7165   -2562.7792    997.29167    12435.399 
    3850    289.16018    264.82549    -2994.183   -2564.0791    1259.0511    12432.266 
    3900    298.45417    265.11681   -3003.8937   -2559.9657    891.31392    12429.721 
    3950    318.28366    265.84422   -3028.1406   -2554.7178    258.65145    12427.551 
    4000    304.77962    265.29772   -3009.9239   -2556.5873     774.3965    12425.492 
    4050    312.12085    265.52193   -3017.3977   -2553.1416    592.36802    12423.712 
    4100    315.73555     265.7042   -3023.4733   -2553.8406    476.11728    12422.163 
    4150     307.2765    265.35384   -3011.7948   -2554.7443    814.16826    12420.791 
    4200     304.4106     265.2349   -3007.8301   -2555.0424     909.1953     12419.75 
    4250    302.23513    265.21533   -3007.1776   -2557.6257    924.16996    12419.122 
    4300    302.99494    265.27316   -3009.1052   -2558.4232    905.78928    12418.897 
    4350    297.95232    265.03186   -3001.0621   -2557.8806      1092.36    12419.119 
    4400    323.31029    265.92732   -3030.9107   -2550.0112    237.05243     12419.78 
    4450     318.1146    265.63541   -3021.1802   -2548.0089    444.97734    12420.521 
    4500    304.56651    265.12879    -3004.293   -2551.2734    955.41239    12421.411 
    4550    316.83821    265.69045   -3023.0151   -2551.7423    525.75903    12422.669 
    4600    322.76387    265.93368   -3031.1226   -2551.0358    208.01432    12424.135 
    4650    315.73536    265.65745    -3021.915   -2552.2826    505.07795    12425.637 
    4700    297.61197    264.97457   -2999.1523   -2556.4771     1261.362    12427.338 
    4750    301.31295    265.17342   -3005.7807   -2557.6005    1230.9029    12429.582 
    4800    289.41291    264.62733   -2987.5775   -2557.0978    1517.1998    12432.438 
    4850    299.16636    265.05547    -3001.849   -2556.8617    997.23417    12435.989 
    4900     311.1196    265.48319   -3016.1064   -2553.3396    456.99827    12439.994 
    4950    311.97402    265.53036   -3017.6787    -2553.641     405.6299    12444.159 
    5000    300.77165    265.13552   -3004.5172   -2557.1421    776.89566     12448.48 
    5050    312.21108    265.54039    -3018.013   -2553.6226     286.2131    12453.068 
    5100     311.3208    265.42506   -3014.1686   -2551.1025    192.06826     12457.72 
    5150    312.13753    265.48625   -3016.2084   -2551.9274    105.93565    12462.346 
    5200    296.73401    265.03209   -3001.0698   -2559.7005    423.63041    12466.944 
    5250    314.47095    265.68116   -3022.7053   -2554.9536   -223.99608    12471.593 
    5300    306.84358     265.3277   -3010.9234   -2554.5169    34.417684    12476.055 
    5350    304.46524    265.30209   -3010.0698   -2557.2008    105.07829    12480.412 
    5400    308.61199     265.5433     -3018.11    -2559.073   -142.46645    12484.704 
    5450    315.83641    265.78293   -3026.0977    -2556.315   -426.00605     12488.77 
    5500    293.84506    265.01799   -3000.5998   -2563.5276    346.69973    12492.523 
    5550    295.00419    265.06402    -3002.134   -2563.3377    349.82401    12496.316 
    5600    310.52459    265.55561   -3018.5204   -2556.6386   -143.60719    12500.172 
    5650    310.41729    265.61901   -3020.6338   -2558.9116   -183.80565    12503.846 
    5700    292.28755    264.95343   -2998.4478   -2563.6922    353.72582    12507.336 
    5750    296.43913    265.19417   -3006.4724   -2565.5416    177.72317    12510.859 
    5800    298.98727    265.21433   -3007.1445   -2562.4236    107.12965    12514.386 
    5850    295.44654    265.33022   -3011.0074   -2571.5531    33.971537     12517.85 
    5900    298.01012    265.47036   -3015.6786   -2572.4111   -190.70369    12521.204 
    5950    288.10724    265.05471   -3001.8236   -2573.2859    53.335674    12524.385 
    6000    288.11755    265.09954   -3003.3181    -2574.765   -23.202588    12527.472 
    6050    289.25188     265.1204   -3004.0135   -2573.7732   -119.56597    12530.436 
    6100    303.80777    265.66692   -3022.2305   -2570.3395   -652.27898     12533.18 
    6150    292.53614    265.15546   -3005.1819   -2570.0566   -340.01244    12535.496 
    6200    301.77533    265.55998   -3018.6661   -2569.7981   -748.38302    12537.441 
    6250    282.39856    264.85143   -2995.0477   -2575.0012   -159.96609    12538.917 
    6300    283.98567    264.93482   -2997.8274   -2575.4202   -265.99188    12540.153 
    6350    297.06199    265.50622   -3016.8741   -2575.0169    -775.1416    12541.111 
    6400     286.8874    265.08907   -3002.9689   -2576.2457    -433.9207    12541.564 
    6450    290.77551    265.27628   -3009.2092   -2576.7026   -662.36044    12541.624 
    6500    302.97919    265.75302   -3025.1006    -2574.442   -1106.7332    12541.184 
    6550    286.75139    265.10814   -3003.6047   -2577.0837   -481.28828     12540.06 
    6600    285.93398    265.11226   -3003.7419   -2578.4368   -389.17431    12538.513 
    6650    283.66212    265.07724   -3002.5748   -2580.6489   -333.23071    12536.651 
    6700    282.11701    265.07996   -3002.6652   -2583.0375     -269.843    12534.504 
    6750    285.52747    265.25999   -3008.6664    -2583.966   -422.03337    12532.099 
    6800     278.9869    265.05732   -3001.9106   -2586.9387   -241.66746    12529.369 
    6850    268.75613    264.73231   -2991.0769   -2591.3225     58.40484    12526.444 
    6900    295.12979    265.72931   -3024.3103   -2585.3271   -780.50559    12523.379 
    6950     292.8243    265.57836   -3019.2788   -2583.7248   -588.99643    12519.839 
    7000    283.66592     265.2422   -3008.0732   -2586.1417   -151.68403    12515.878 
    7050    282.38694     260.1947   -3006.4899   -2586.4607   -144.75159    12511.709 
    7100    290.93552    260.53743   -3017.9143   -2585.1698   -502.75033    12507.327 
    7150     290.4233     260.5389   -3017.9634   -2585.9808   -500.25902    12502.589 
    7200    301.22569    260.90752   -3030.2506   -2582.2003   -837.86223    12497.425 
    7250    294.42734    260.60086   -3020.0288   -2582.0904   -550.01488    12491.714 
    7300    280.59443    260.16555   -3005.5185   -2588.1555    35.224304    12485.613 
    7350    291.39606    260.52182   -3017.3941   -2583.9645   -163.27889    12479.396 
    7400    306.81549    261.12328   -3037.4427   -2581.0779   -624.91947    12472.971 
    7450    298.62022    260.83144   -3027.7148   -2583.5399   -323.32111     12466.14 
    7500    302.75485    260.90221   -3030.0737   -2579.7488   -310.27987    12459.011 
    7550    300.67778    260.82111   -3027.3704    -2580.135   -71.285208    12451.631 
    7600    297.01711    260.70803   -3023.6009   -2581.8105    142.08152     12444.12 
    7650    302.22415    260.86148   -3028.7159   -2579.1803    60.520274    12436.569 
    7700    303.64434    260.90587   -3030.1958   -2578.5478    150.72656    12428.966 
    7750    291.30689    260.46149    -3015.383   -2582.0861    690.68583     12421.38 
    7800    290.90911    260.38531   -3012.8435   -2580.1383    853.54789    12414.071 
    7850     296.9751    260.64601   -3021.5336   -2579.8056    702.17293    12407.126 
    7900     298.6844      260.695   -3023.1667   -2578.8963    640.40055    12400.477 
    7950    308.48462    261.02722   -3034.2408   -2575.3933    354.84275    12394.086 
    8000    320.19768    261.44797   -3048.2658    -2571.996    68.911918    12387.792 
    8050    321.20541      261.521      -3050.7   -2572.9313    160.03686    12381.443 
    8100    294.54092    260.49302   -3016.4339   -2578.3266    1193.4578     12375.16 
    8150    300.38947    260.59856    -3019.952   -2573.1454    1138.5464     12369.38 
    8200    305.25543    260.70664   -3023.5547   -2569.5103     1053.845    12364.153 
    8250    315.68979    261.10087   -3036.6957    -2567.131    795.01654    12359.388 
    8300    296.90764    260.26796   -3008.9321   -2567.3045    1512.7508    12355.026 
    8350    299.26041    260.40804   -3013.6014   -2568.4742    1478.9547     12351.35 
    8400    305.63191    260.48865   -3016.2883    -2561.684    1424.2555    12348.406 
    8450    317.07087    260.99412   -3033.1375   -2561.5186    1094.4763    12346.119 
    8500    327.29265    261.34379    -3044.793     -2557.97    809.54751    12344.326 
    8550    319.70583    261.01364   -3033.7881   -2558.2499    1124.5499    12342.901 
    8600    296.29874    260.03318   -3001.1059    -2560.384    1930.2437    12342.011 
    8650    328.24184    261.24199   -3041.3998   -2553.1649    870.22689    12341.949 
    8700    315.87375    260.75399   -3025.1332   -2555.2949    1323.9658    12342.352 
    8750    307.32297     260.4048   -3013.4933   -2556.3736    1738.6225    12343.351 
    8800    318.40521    260.71553   -3023.8511   -2550.2475    1360.4845    12345.163 
    8850    308.45035    260.41083   -3013.6943   -2554.8978    1574.8823    12347.634 
    8900    312.71418    260.54605   -3018.2018   -2553.0631      1420.62    12350.805 
    8950    310.04545    260.29651   -3009.8838   -2548.7147    1492.3189    12354.656 
    9000      302.247    260.11551   -3003.8503   -2554.2807    1695.2901    12359.217 
    9050    313.69887    260.44777   -3014.9257   -2548.3224    1382.9564    12364.561 
    9100    318.04255    260.58902   -3019.6339   -2546.5697    1188.0416    12370.553 
    9150    308.94633      260.229   -3007.6334   -2548.0992    1459.6692    12377.093 
    9200    313.76506    260.30027   -3010.0089   -2543.3072    1256.0342    12384.284 
    9250    330.06816    260.97563   -3032.5212   -2541.5698    658.36896    12392.003 
    9300    311.76407    260.23214    -3007.738   -2544.0126    1280.1614    12400.011 
    9350    307.98745    260.19857   -3006.6189   -2548.5109    1160.3361    12408.541 
    9400    321.09177    260.72391   -3024.1302   -2546.5306    505.78308    12417.542 
    9450    321.69798    260.63021   -3021.0071   -2542.5057    540.49679    12426.727 
    9500    308.19676    260.12916   -3004.3055   -2545.8862    931.79146    12436.103 
    9550    316.62087    260.39296   -3013.0988   -2542.1493    505.17442     12445.79 
    9600    313.92981    260.31927   -3010.6422   -2543.6954    420.18259    12455.629 
    9650    311.42652    260.33495   -3011.1649   -2547.9415     348.3351    12465.551 
    9700    321.24204    260.61759   -3020.5863   -2542.7631    40.508719     12475.49 
    9750    305.85488    260.09047   -3003.0158   -2548.0799    474.28215    12485.351 
    9800    297.91577    259.81936   -2993.9787   -2550.8516    617.36104    12495.295 
    9850    296.60235    259.65925   -2988.6417   -2547.4682    546.37528    12505.423 
    9900    303.77877    259.99269   -2999.7563   -2547.9084    147.80277    12515.683 
    9950    314.56516     260.5032   -3016.7733   -2548.8815   -377.16262    12525.838 
   10000    283.54179    259.35988   -2978.6626   -2556.9156    505.58231    12535.711 
   10050    288.64411    259.53339   -2984.4463     -2555.11    230.22967    12545.636 
   10100    300.04137    259.98761   -2999.5869    -2553.298   -352.07208    12555.534 
   10150     296.5714    259.89904   -2996.6346   -2555.5071   -409.16159    12565.098 
   10200    294.87139    259.82405   -2994.1351   -2555.5363   -525.85756    12574.256 
   10250    289.69574    259.60729   -2986.9098   -2556.0093   -387.19853    12582.945 
   10300    274.73938    259.14271   -2971.4238   -2562.7698    27.826281    12591.272 
   10350    293.57193    259.86873   -2995.6243   -2558.9583   -696.10104    12599.385 
   10400    294.81674    259.90361   -2996.7869   -2558.2693   -883.81065    12606.957 
   10450    288.96316    259.76258    -2992.086   -2562.2752   -863.20884    12613.873 
   10500    285.85881    259.68746   -2989.5821   -2564.3888   -879.60562    12620.134 
   10550    283.86254    259.62662   -2987.5541   -2565.3301   -779.25703    12625.726 
   10600    272.37913    259.23716    -2974.572   -2569.4287   -401.49106    12630.744 
   10650    278.94739    259.47756   -2982.5852   -2567.6721   -683.05511     12635.35 
   10700    286.86908     259.6848   -2989.4933   -2562.7973   -960.47733    12639.428 
   10750    279.83556    259.36821   -2978.9404   -2562.7062   -718.84798    12642.842 
   10800    297.77997    260.05012   -3001.6706   -2558.7455   -1338.8377     12645.64 
   10850    291.63673    259.76589   -2992.1963   -2558.4087   -1223.2566    12647.567 
   10900     288.2188    259.66559    -2988.853   -2560.1493   -1183.5523    12648.632 
   10950    283.29527     259.5222   -2984.0734   -2562.6931   -1066.4455    12648.877 
   11000    291.10129    259.78161   -2992.7205   -2559.7294    -1334.533    12648.354 
   11050    297.91824    255.08082   -3002.6941   -2559.5633   -1628.5783    12646.933 
   11100     288.8934    254.83912   -2994.6374   -2564.9304   -1267.0554    12644.461 
   11150    279.17425     254.5258   -2984.1935   -2568.9429   -870.09036    12641.148 
   11200    289.09781    254.87139   -2995.7129   -2565.7018    -1135.081    12637.167 
   11250    292.59172    254.96034   -2998.6778   -2563.4698   -1178.1905    12632.422 
   11300     279.5783    254.45368   -2981.7893   -2565.9378   -704.21339    12626.916 
   11350    292.87218     255.0868   -3002.8934   -2567.2683   -1175.3324     12620.83 
   11400    290.95528     255.0319   -3001.0632   -2568.2893   -1071.1807    12614.006 
   11450    280.17799    254.57494   -2985.8312   -2569.0877   -550.42108    12606.482 
   11500    287.68981    254.77871   -2992.6238    -2564.707   -742.58028    12598.519 
   11550    287.82124    254.86169   -2995.3895   -2567.2772   -714.94417    12590.064 
   11600    283.12175    254.68225   -2989.4084   -2568.2862   -489.72599    12581.138 
   11650    311.24577    255.72139   -3024.0463   -2561.0918   -1318.7115    12571.786 
   11700    295.13187    255.04887   -3001.6291   -2562.6429   -726.49002    12561.691 
   11750    297.87198    255.10504   -3003.5013   -2560.4393   -674.68917    12551.064 
   11800    302.77859    255.23692   -3007.8974   -2557.5372   -607.53332    12539.979 
   11850    284.20267     254.6598   -2988.6601   -2565.9302    150.58533    12528.531 
   11900    300.70426     255.2618   -3008.7266   -2561.4518   -289.94999    12517.055 
   11950    302.20144    255.25703   -3008.5677    -2559.066   -292.07648    12505.394 
   12000    301.50182    255.19388   -3006.4628   -2558.0017   -101.47815    12493.529 
   12050    298.20859    259.89921   -2996.6403   -2553.0776    235.12384    12481.601 
   12100    312.37656    260.46292   -3015.4307   -2550.7943   -81.168552    12469.737 
   12150    316.18347     260.6925   -3023.0834   -2552.7845   -15.311024    12457.824 
   12200    302.55761    259.99419   -2999.8064   -2549.7749    721.40839    12445.931 
   12250    309.15297    260.27856   -3009.2854   -2549.4438    673.28822    12434.373 
   12300    299.20224    259.95025   -2998.3417   -2553.3011    1109.1029    12423.209 
   12350    302.72926    260.05964   -3001.9879   -2551.7011    1027.2492    12412.621 
   12400    303.88731    260.08102   -3002.7007   -2550.6914    979.93219    12402.586 
   12450     306.5954     260.1943   -3006.4767   -2550.4393     1002.844    12393.079 
   12500    312.40879    260.36889   -3012.2964    -2547.612    1079.4139    12384.102 
   12550    320.97161    260.60075    -3020.025    -2542.604    1067.8908    12375.681 
   12600    313.27211    260.22896    -3007.632   -2541.6635    1545.3769     12367.85 
   12650    315.48734    260.30754   -3010.2514   -2540.9879    1675.2589    12360.801 
   12700    317.71386    260.29868   -3009.9561   -2537.3808    1706.3275    12354.635 
   12750    318.89885    260.30129    -3010.043   -2535.7051     1758.676    12349.336 
   12800    328.24795    260.67967   -3022.6558   -2534.4118    1550.7464    12344.929 
   12850    324.12991    260.51421   -3017.1403   -2535.0216    1805.5555    12341.333 
   12900    329.27001    260.74142   -3024.7141   -2534.9499    1705.5166    12338.614 
   12950    319.58862     260.3096   -3010.3199   -2534.9561    2023.2201    12336.784 
   13000    318.15702    260.27367   -3009.1224   -2535.8879    2068.4574    12335.946 
   13050    327.60858    255.63745   -3021.2482   -2533.9553    1643.7702    12336.103 
   13100    335.70207    255.89687   -3029.8957   -2530.5644    1416.4097    12337.033 
   13150    324.89347     255.5315   -3017.7165   -2534.4621    1760.2977    12338.625 
   13200    333.36183    255.86586   -3028.8622   -2533.0117    1331.2402    12340.985 
   13250    333.77497    255.92889   -3030.9629   -2534.4979    1168.9095    12343.938 
   13300    322.53026    255.50038   -3016.6793   -2536.9399    1551.1529    12347.392 
   13350    337.30492    256.04018   -3034.6728   -2532.9573    1010.0023    12351.479 
   13400    323.06522    255.59866   -3019.9554   -2539.4204    1385.2321    12356.001 
   13450    316.31678    255.38743   -3012.9144   -2542.4172     1494.349     12361.09 
   13500    331.90731    256.03129   -3034.3764   -2540.6894    835.99456    12366.778 
   13550    311.26076    255.34887    -3011.629   -2548.6522     1328.709    12372.824 
   13600    317.55107    255.60227   -3020.0758   -2547.7427    1046.8766    12379.368 
   13650    315.11103    255.50379    -3016.793   -2548.0893    1050.7868      12386.3 
   13700    318.79542    255.65165   -3021.7217   -2547.5376     788.6115    12393.594 
   13750    310.02343     255.5082   -3016.9398   -2555.8035    821.72225     12401.17 
   13800    312.94091    255.63527   -3021.1755   -2555.6996    600.36308    12408.971 
   13850    310.27222    255.59247   -3019.7489   -2558.2425    509.78864    12416.908 
   13900    307.54325     255.5762   -3019.2067   -2561.7595    335.28304    12424.935 
   13950    306.16024    255.58873   -3019.6243   -2564.2341    273.05435    12432.933 
   14000    291.83156    255.10949   -3003.6496   -2569.5723    741.35619    12440.897 
   14050    278.16557    259.59294   -2986.4315   -2572.6813    1103.6464    12449.095 
   14100    289.76634    260.08073   -3002.6909   -2571.6855    562.65659    12457.672 
   14150    303.95996    260.62038   -3020.6792   -2568.5618   -38.170625    12466.366 
   14200    306.07212    260.65403   -3021.8009   -2566.5418   -143.21622    12474.848 
   14250    291.65687     260.1475   -3004.9166   -2571.0991    177.26847    12483.067 
   14300    294.51682    260.24658   -3008.2194   -2570.1479    7.4821081    12491.152 
   14350    294.25498    260.30355   -3010.1185   -2572.4365   -94.226728    12499.058 
   14400    309.40129    260.97052   -3032.3506   -2572.1396   -714.70161    12506.661 
   14450     293.6494    260.35163   -3011.7209   -2574.9396    -234.8977    12513.722 
   14500    289.33119    260.11508   -3003.8361   -2573.4779   -23.390762     12520.44 
   14550    285.51051    260.01704   -3000.5681   -2575.8928   -15.937417    12526.966 
   14600    308.01485    260.90302   -3030.1005   -2571.9518   -954.09826    12533.235 
   14650    308.81911    260.87693    -3029.231    -2569.886   -1036.7835    12538.818 
   14700    281.51371    259.83819   -2994.6065   -2575.8762   -123.64333     12543.69 
   14750    291.60597    260.20499    -3006.833   -2573.0912   -495.68233    12548.233 
   14800    288.26233    260.01786   -3000.5953   -2571.8269   -473.20281    12552.349 
   14850    283.17061    259.88342   -2996.1139    -2574.919    -410.6746    12556.032 
   14900    294.18077    260.36857   -3012.2856    -2574.714   -880.33013    12559.293 
   14950    286.83164    260.14951   -3004.9837   -2578.3434   -762.97661    12561.935 
   15000    284.88389    260.02366   -3000.7885   -2577.0453   -656.30085    12563.971 
   15050    285.22323     265.0552   -3001.8401   -2577.5922   -610.17642     12565.51 
   15100    288.24749    265.17405   -3005.8017   -2577.0554   -672.54251    12566.579 
   15150    284.09541    264.96868   -2998.9562   -2576.3858   -497.45454    12567.156 
   15200    291.90408    265.18932   -3006.3106   -2572.1254   -757.25317    12567.304 
   15250    286.38448    265.09186    -3003.062   -2577.0868   -691.38454    12566.933 
   15300    289.94749    265.17325    -3005.775   -2574.5001   -742.97083    12566.059 
   15350     287.9541    265.10488   -3003.4961   -2575.1862   -537.16639    12564.673 
   15400    284.80278    264.93802    -2997.934   -2574.3114   -336.17688    12562.884 
   15450     278.3669    264.60759   -2986.9198   -2572.8702   -125.39879    12560.837 
   15500    292.95566    265.10967   -3003.6556   -2567.9062   -603.47071    12558.596 
   15550    297.10035    265.34864   -3011.6215   -2569.7072   -798.58322    12555.949 
   15600    302.00017    265.58226   -3019.4087   -2570.2063   -948.37821    12552.764 
   15650    298.38135    265.35742   -3011.9138   -2568.0942    -683.1796    12548.999 
   15700    293.66058    265.19189   -3006.3965   -2569.5986   -434.30536    12544.773 
   15750    287.95131    264.91179   -2997.0596   -2568.7538   -189.95042    12540.251 
   15800    293.72424    265.16106   -3005.3686   -2568.4761   -331.97749    12535.544 
   15850    302.08599    265.44855   -3014.9517   -2565.6217   -451.59678    12530.593 
   15900    298.90853    265.19373   -3006.4576   -2561.8539   -162.73843     12525.37 
   15950    298.95248    265.24357   -3008.1189   -2563.4498   -51.068456    12519.985 
   16000    281.01067    264.55655   -2985.2182   -2567.2361    693.31041    12514.564 
   16050    280.54711    264.46083   -2982.0275    -2564.735     742.5436    12509.463 
   16100     305.5918    265.29582   -3009.8605   -2555.3159   -142.30928    12504.679 
   16150    301.42571    265.11019   -3003.6731   -2555.3252    49.832264    12499.812 
   16200    279.46175     264.1856   -2972.8534   -2557.1752    1027.7609    12494.965 
   16250    287.24583    264.51612   -2983.8705   -2556.6141    867.47917    12490.592 
   16300     306.4333    265.25388   -3008.4625   -2552.6662    146.31954    12486.628 
   16350    303.88471    265.08493   -3002.8311   -2550.8256    199.69849    12482.723 
   16400    297.82627    264.80766   -2993.5888   -2550.5948    395.72372    12478.893 
   16450    309.48765    265.29209   -3009.7364   -2549.3969    75.547282    12475.197 
   16500      307.847     265.2107   -3007.0233   -2549.1243    305.00009    12471.494 
   16550    295.79593    264.70971   -2990.3235   -2550.3495    926.37949    12467.921 
   16600    299.00138     264.7906     -2993.02   -2548.2781     957.9089     12464.78 
   16650    308.01172    265.21514   -3007.1714   -2549.0273    594.45529    12462.074 
   16700    306.43663    265.02761   -3000.9205   -2545.1192    642.51627    12459.644 
   16750    304.71537    264.91163   -2997.0544   -2543.8133    748.32914    12457.505 
   16800    308.72807    265.05908   -3001.9693   -2542.7597    698.69269    12455.696 
   16850     300.7264    264.71954   -2990.6512   -2543.3435    1047.9694     12454.22 
   16900    310.58997    265.06974   -3002.3246   -2540.3455    752.08427    12453.188 
   16950    320.31601    265.43343   -3014.4476   -2538.0018    363.53908    12452.481 
   17000    310.92387    265.10963   -3003.6543   -2541.1787     649.5605    12451.934 
   17050    314.65631    265.21633    -3007.211   -2539.1836     551.4317    12451.616 
   17100    314.94279    265.22159   -3007.3864   -2538.9329    500.77369    12451.522 
   17150    316.23752    265.28585   -3009.5282   -2539.1489    571.63782    12451.603 
   17200    301.78275    264.68155   -2989.3851   -2540.5062     1164.547    12451.944 
   17250    302.28564    264.77806   -2992.6018   -2542.9749    1094.2609    12452.797 
   17300    303.94264    264.78663   -2992.8878   -2540.7961    992.69221    12454.152 
   17350    318.35576    265.36229   -3012.0764   -2538.5463    421.66154    12455.925 
   17400    314.08213    265.18812   -3006.2706   -2539.0972    548.72696    12457.866 
   17450    306.15163    264.81801   -2993.9337   -2538.5564    944.55702    12459.991 
   17500    299.84994    264.62838   -2987.6126   -2541.6085    1206.2526    12462.522 
   17550     301.1468     264.6591   -2988.6366   -2540.7036    1177.8326    12465.598 
   17600    313.38774    265.12126    -3004.042   -2537.9015     667.2295    12469.186 
   17650    312.37144    265.09852   -3003.2839   -2538.6551    595.10558    12473.032 
   17700    307.01167    265.02149   -3000.7162   -2544.0596    658.85298    12477.072 
   17750    318.76014    265.39185   -3013.0616   -2538.9301    276.55023    12481.303 
   17800    297.40808    264.62557   -2987.5191   -2545.1472    1012.0862    12485.612 
   17850    305.45343    264.97915    -2999.305   -2544.9662    733.27901    12490.274 
   17900     297.1994    264.69482   -2989.8274   -2547.7658    886.13411    12495.232 
   17950    300.58726    264.84092   -2994.6973   -2547.5965    559.49292    12500.517 
   18000    315.17779     265.4088   -3013.6266   -2544.8235    -151.5113    12505.938 
   18050     302.6458    259.80355   -2993.4517    -2543.289    187.55824    12511.173 
   18100    313.73243    260.31851    -3010.617   -2543.9637   -242.71559     12516.27 
   18150    304.96124    259.97983   -2999.3277    -2545.721   -71.490891    12521.112 
   18200    310.09497    260.14914   -3004.9712   -2543.7284   -251.77852    12525.712 
   18250    312.22135    260.24336    -3008.112   -2543.7064   -394.13259    12530.005 
   18300    315.17345    260.33706   -3011.2354   -2542.4388   -557.93512      12533.9 
   18350    306.91187    260.00322   -3000.1073   -2543.5992   -240.96153    12537.342 
   18400    296.05602    259.67325   -2989.1084   -2548.7475    34.431816    12540.482 
   18450    301.79977    259.92435   -2997.4782   -2548.5739   -326.34858    12543.465 
   18500    303.09596    260.02444   -3000.8148   -2549.9825   -430.56773    12546.135 
   18550    297.40105    259.89737    -2996.579   -2554.2174   -229.83097    12548.428 
   18600    305.42505    260.13185   -3004.3951   -2550.0985   -484.60302    12550.431 
   18650    303.11562    260.11011   -3003.6703   -2552.8087   -422.20924    12552.017 
   18700    298.84125    259.92599   -2997.5331   -2553.0293    -293.4543    12553.224 
   18750    305.11215    260.23679   -3007.8929   -2554.0617   -606.75646    12554.106 
   18800    296.39854    260.00038   -3000.0125   -2559.1422    -418.2578    12554.545 
   18850    302.12647    260.20352   -3006.7838   -2557.3936   -541.91891    12554.603 
   18900    297.03285    260.01719    -3000.573   -2558.7592   -335.43361    12554.251 
   18950    289.82179    259.79448   -2993.1493   -2562.0613   -116.72027    12553.584 
   19000    297.91173     260.0957     -3003.19   -2560.0689   -413.90266    12552.695 
   19050    293.72111    260.07959    -3002.653   -2565.7651   -345.98828    12551.464 
   19100    281.63657    259.54724   -2984.9079   -2565.9949    45.731846    12549.953 
   19150    292.80633    260.01337   -3000.4456   -2564.9184   -442.40468    12548.307 
   19200    306.10482    260.57532   -3019.1772   -2563.8695   -946.47476    12546.307 
   19250    301.10128     260.3516   -3011.7198   -2563.8545   -690.03294    12543.703 
   19300    294.19785    260.08562   -3002.8539   -2565.2569   -362.69518    12540.597 
   19350    296.13588    260.20857   -3006.9522   -2566.4725   -438.79131    12537.159 
   19400    304.50919    260.60899   -3020.2998   -2567.3654   -825.50637    12533.372 
   19450     309.5354    260.84458   -3028.1525   -2567.7421   -963.32227    12529.024 
   19500    280.09483    259.77206    -2992.402   -2575.7822    132.92711    12524.112 
   19550    265.77897    259.26854   -2975.6179   -2580.2918    593.94399    12519.163 
   19600    300.77231    260.69566   -3023.1885   -2575.8125    -653.1366    12514.374 
   19650    301.22065    260.73626   -3024.5421   -2576.4992    -729.9917     12509.22 
   19700    300.17722    260.69635   -3023.2118   -2576.7209   -744.28643    12503.564 
   19750    301.93416    260.84297    -3028.099   -2578.9949   -823.61258    12497.403 
   19800     282.8366     260.2167   -3007.2234   -2586.5254   -85.770322    12490.752 
   19850    289.20031    260.40139   -3013.3797   -2583.2162   -141.28684    12483.941 
   19900    294.14936    260.62861   -3020.9536   -2583.4288   -298.97411    12476.985 
   19950    296.80182    260.80152   -3026.7172    -2585.247    -318.1453    12469.803 
   20000    294.78398    260.76547   -3025.5158   -2587.0469   -182.98704    12462.396 
   20050    291.39218    265.69842   -3023.2807    -2589.857   -77.356474    12454.825 
   20100    293.97513    265.82462   -3027.4875   -2590.2218   -205.49512    12447.167 
   20150    296.52185    265.88036   -3029.3454   -2588.2916   -247.75011    12439.365 
   20200    294.26876     265.8091   -3026.9701   -2589.2676   -52.303257    12431.395 
   20250    300.24979    266.22958   -3040.9859   -2594.3871   -244.20885    12423.336 
   20300    273.68776     265.3624     -3012.08   -2604.9902    650.81429    12415.173 
   20350    290.60835    266.02463   -3034.1543   -2601.8964    188.23948    12407.242 
   20400    287.30071    266.02222    -3034.074    -2606.736    261.35426    12399.429 
   20450    280.63415    265.92394   -3030.7978   -2613.3758    399.13461    12391.724 
   20500    294.11382    266.49629   -3049.8764   -2612.4044   -101.45342    12384.163 
   20550    285.90694    266.30243   -3043.4144   -2618.1495    155.22872    12376.554 
   20600     292.9665    266.66809   -3055.6031   -2619.8377   -144.09591    12368.951 
   20650    287.50767    266.51823   -3050.6076   -2622.9617   -102.47247     12361.26 
   20700    280.45315    266.39163   -3046.3877   -2629.2349    65.447621    12353.481 
   20750    287.36657    266.77349   -3059.1165   -2631.6805   -179.26249    12345.691 
   20800      291.256    266.93103   -3064.3676   -2631.1463   -245.33266    12337.778 
   20850    287.31343    266.99832   -3066.6107   -2639.2538   -91.259947    12329.684 
   20900    276.18111    266.65049   -3055.0164    -2644.218    319.55126    12321.523 
   20950    274.26152     266.5911   -3053.0367   -2645.0935    366.18003    12313.491 
   21000    281.05479    266.86562   -3062.1872   -2644.1395    99.566059    12305.619 
   21050    298.12469    267.55082   -3085.0273   -2641.5894   -453.29706    12297.741 
   21100    287.83792    267.13385   -3071.1283   -2642.9912    28.573348    12289.635 
   21150    278.84808    266.82521   -3060.8404    -2646.075       461.95    12281.503 
   21200    268.61233     266.4013     -3046.71   -2647.1695    966.65712    12273.602 
   21250     275.6909    266.68419   -3056.1397   -2646.0704    808.02338    12266.177 
   21300    286.37061    267.16293   -3072.0978   -2646.1432    487.79263    12259.161 
   21350    276.93072    266.75258   -3058.4194   -2646.5059    956.44612    12252.415 
   21400    278.50716    266.79063   -3059.6875   -2645.4292    1031.1625    12246.124 
   21450    285.57809    266.96832   -3065.6106   -2640.8348    892.01289    12240.348 
   21500    285.81747    267.05009   -3068.3362   -2643.2044    866.81339    12235.008 
   21550    283.07521    266.95566   -3065.1887   -2644.1358    1031.2925    12230.095 
   21600    286.52325    267.17139   -3072.3797   -2646.1981    1014.5326    12225.674 
   21650    280.72609    267.01728   -3067.2428    -2649.684    1193.2422    12221.772 
   21700      294.358    267.43926   -3081.3088   -2643.4736    766.22522    12218.411 
   21750    280.67643    266.98732    -3066.244   -2648.7591     1210.439    12215.453 
   21800    291.09498    267.30518   -3076.8394   -2643.8577    926.88327    12213.033 
   21850    288.09731    267.09549   -3069.8496   -2641.3267    1091.1409    12211.079 
   21900    284.36776    266.89081   -3063.0269   -2640.0514    1335.0196     12209.64 
   21950    288.43338    267.13918   -3071.3061   -2642.2833    1267.7904    12208.822 
   22000    279.45758     266.7535   -3058.4498   -2642.7779    1568.0746    12208.632 
   22050    286.34305    266.99903   -3066.6343   -2640.7207    1300.9289    12209.178 
   22100      293.582    267.20393   -3073.4643   -2636.7833    1031.9618    12210.339 
   22150    296.29301    267.20803   -3073.6011   -2632.8877    950.73265    12211.972 
   22200    289.79772    266.96798   -3065.5994   -2634.5473    1229.5886     12214.03 
   22250    282.67561    266.53901   -3051.3004   -2630.8419    1549.3309    12216.674 
   22300    296.98753    267.07493   -3069.1644   -2627.4179    1048.4362    12220.001 
   22350    288.99128     266.6782   -3055.9399   -2626.0872     1296.776    12223.829 
   22400    301.03344    267.11901   -3070.6337   -2622.8693    793.61358    12228.203 
   22450     301.8416    267.17558   -3072.5194   -2623.5529    693.29358    12232.907 
   22500    283.62704      266.422   -3047.3999   -2625.5261    1375.0225    12237.915 
   22550    298.34278    266.90795   -3063.5982    -2619.836    1003.9277    12243.483 
   22600    289.38672    266.44608   -3048.2027   -2617.7618    1384.4944    12249.537 
   22650    286.40724    266.38147   -3046.0489   -2620.0398    1450.5109    12256.193 
   22700    291.83925    266.54606   -3051.5353   -2617.4466    1279.4243    12263.498 
   22750    290.62351    266.30554   -3043.5179   -2611.2374    1368.0768    12271.393 
   22800    291.95222    266.31532   -3043.8439   -2609.5871    1194.6222    12279.891 
   22850    298.38924    266.60959   -3053.6529   -2609.8215    797.50261    12288.895 
   22900    295.83847    266.46065   -3048.6884   -2608.6511    779.99057    12298.234 
   22950    294.44422     266.3514   -3045.0466   -2607.0832    823.48237    12307.858 
   23000    291.10297    266.19428   -3039.8093   -2606.8157    923.82452    12317.788 
   23050    295.39402    266.28557   -3042.8523   -2603.4761    726.09726    12328.087 
   23100    298.14005    266.32936    -3044.312   -2600.8512    563.73858    12338.652 
   23150    283.89689    265.82236   -3027.4119   -2605.1368    920.96921    12349.405 
   23200    293.41874    266.16955   -3038.9849   -2602.5467    487.82882    12360.476 
   23250    305.48871    266.54304   -3051.4346   -2597.0433   -27.998664    12371.665 
   23300    308.11594    266.58643   -3052.8811    -2594.582   -108.84331    12382.699 
   23350    295.33754    266.05604   -3035.2013   -2595.9091    398.40153    12393.558 
   23400    280.90814    265.33237    -3011.079   -2593.2494    818.11901    12404.493 
   23450    289.80436    265.66326   -3022.1087   -2591.0466    306.10292    12415.679 
   23500    284.72614    265.43954   -3014.6514   -2591.1429    302.88682    12426.934 
   23550    296.42641    265.93599   -3031.1996   -2590.2877    -194.1093    12438.167 
   23600    291.35688    265.66951   -3022.3172   -2588.9459   -86.171934    12449.173 
   23650    284.49171    265.35432   -3011.8106   -2588.6507     140.8645    12459.971 
   23700    282.21839    265.22503   -3007.5011   -2587.7226    163.88729    12470.696 
   23750    282.81847    265.11969   -3003.9898   -2583.3187    104.94163     12481.36 
   23800     281.5164    264.89152   -2996.3839   -2577.6496    95.771467    12491.938 
   23850    292.78245    265.32069   -3010.6897    -2575.198   -408.07642    12502.385 
   23900    290.44752    265.24352   -3008.1172   -2576.0985   -468.26373    12512.473 
   23950    291.32477    265.27778   -3009.2594   -2575.9359    -592.4765    12522.134 
   24000     290.2525    265.21132    -3007.044   -2575.3154   -580.83255     12531.31 
   24050    298.49439    265.46181   -3015.3937   -2571.4059   -824.06326    12539.994 
   24100    300.86653    265.45595   -3015.1983   -2567.6821    -887.2305    12548.063 
   24150    292.75085    265.09968   -3003.3228   -2567.8781   -620.12569    12555.479 
   24200    285.92987    264.74173    -2991.391    -2566.092   -445.40033    12562.407 
   24250    295.68373    265.05951   -3001.9838   -2562.1767   -810.80539    12568.898 
   24300    296.37283    265.11079   -3003.6929   -2562.8608   -841.78536    12574.799 
   24350     290.9278    264.89055   -2996.3515   -2563.6185   -621.93623     12580.09 
   24400    295.32671    264.99214   -2999.7381    -2560.462   -749.43649    12584.862 
   24450    289.89803     264.7502   -2991.6735   -2560.4721   -602.75144    12589.089 
   24500     290.9791    264.74595   -2991.5316   -2558.7222   -607.61967    12592.826 
   24550    286.39598    264.55778   -2985.2594   -2559.2671    -393.0013    12596.091 
   24600    284.49466    264.36949   -2978.9831   -2555.8189    -203.1399    12599.001 
   24650    286.97411     264.4783   -2982.6101   -2555.7579   -184.14049    12601.673 
   24700    280.41916    264.10543   -2970.1809   -2553.0786    74.122684    12604.151 
   24750    295.85488    264.73301   -2991.1005   -2551.0387   -500.64186      12606.5 
   24800     288.7588    264.41844   -2980.6146   -2551.1077   -249.80548    12608.489 
   24850    291.48218    264.52715   -2984.2382   -2550.6805    -313.5765    12610.183 
   24900    300.46057    264.83381   -2994.4604   -2547.5481   -671.80168    12611.571 
   24950     288.2452    264.31574   -2977.1912   -2548.4483   -240.16141    12612.502 
   25000    281.63951    264.04822    -2968.274   -2549.3566   -15.657497    12613.169 
   25050    299.61922    264.56332   -2985.4441   -2539.7832   -613.55332    12613.668 
   25100    300.65938    264.59029    -2986.343   -2539.1349    -735.7852    12613.729 
   25150    306.38174    264.84275   -2994.7582   -2539.0386   -972.70889    12613.241 
   25200    301.40602    264.58625   -2986.2084   -2537.8898   -682.38579    12612.115 
   25250    295.53491    264.29706   -2976.5688    -2536.983   -252.35953    12610.498 
   25300    298.19032     264.3007   -2976.6899   -2533.1544   -199.97623    12608.611 
   25350    310.54854    264.86087   -2995.3622   -2533.4448   -784.19428    12606.465 
   25400    311.66585     264.9419   -2998.0632   -2534.4839   -936.11323    12603.782 
   25450    316.89013    265.05874   -3001.9578   -2530.6078   -1011.3809    12600.454 
   25500    296.41555    264.27008   -2975.6694   -2534.7738   -175.99455    12596.499 
   25550    281.87094    263.75578    -2958.526   -2539.2643    352.30518    12592.333 
   25600    300.31295     264.4483   -2981.6099   -2534.9171   -234.02648    12588.214 
   25650    294.37854    264.22255    -2974.085   -2536.2193   -21.200572     12583.92 
   25700    301.35727    264.47668    -2982.556   -2534.3099   -167.42146    12579.499 
   25750    294.75189    264.06279   -2968.7595   -2530.3384    191.68232    12574.924 
   25800    297.17353    264.16921   -2972.3071    -2530.284    89.990703    12570.344 
   25850    297.29727    264.15763    -2971.921   -2529.7138    154.62622    12565.728 
   25900     292.4975      264.051   -2968.3666   -2533.2988    342.36047    12561.129 
   25950    316.77937    264.95352   -2998.4505   -2527.2652   -495.43505    12556.579 
   26000    323.08808    265.11364    -3003.788    -2523.219   -674.40681     12551.67 
   26050    324.66452    260.15095   -3005.0316   -2522.1177   -579.53372    12546.267 
   26100    311.33147    259.69896   -2989.9653   -2526.8833   0.41741938    12540.462 
   26150    301.00066    259.33333   -2977.7777   -2530.0621    438.61711    12534.548 
   26200    305.12425     259.4393     -2981.31   -2527.4608    444.82636    12528.741 
   26250    290.11187    258.96449    -2965.483   -2533.9636     970.8993    12523.132 
   26300    321.55885    260.17222   -3005.7406   -2527.4462    -91.83934    12517.867 
   26350    316.80687    259.99858   -2999.9527   -2528.7264    66.357338    12512.523 
   26400    308.55825    259.65326   -2988.4421   -2529.4851    467.08201      12507.1 
   26450     314.2197    259.84649   -2994.8831   -2527.5051    317.41322    12501.819 
   26500    316.87287    260.01799   -3000.5998   -2529.2754    191.77285    12496.619 
   26550    312.54463    259.85564    -2995.188   -2530.3016    441.21244    12491.427 
   26600    311.44957    259.77663   -2992.5545   -2529.2968    526.36041    12486.377 
   26650    321.69168    260.12819   -3004.2731   -2525.7811    235.42406    12481.482 
   26700    313.27454    259.80132   -2993.3774   -2527.4053    591.86759    12476.645 
   26750      319.511    260.06438   -3002.1459   -2526.8975    429.33755    12471.996 
   26800    312.96764    259.93159   -2997.7195   -2532.2039    648.65148    12467.508 
   26850    308.06116    259.88854   -2996.2845   -2538.0669    895.21042    12463.258 
   26900     301.4157    259.66782   -2988.9274   -2540.5944    1202.6405    12459.419 
   26950     315.7442    260.22921   -3007.6404   -2537.9948    727.29389     12456.11 
   27000    317.02853    260.25197   -3008.3989    -2536.843    617.28949    12453.116 
   27050     317.5907    260.23946   -3007.9821     -2535.59    537.01755    12450.346 
   27100    312.26114    260.12893   -3004.2976   -2539.8329        608.5    12447.767 
   27150    313.03868    260.19066   -3006.3555   -2540.7342    593.35443    12445.405 
   27200    319.67183    260.55837   -3018.6125   -2543.1249    366.49746     12443.24 
   27250    311.03435    260.31918   -3010.6392   -2547.9992    541.71184    12441.194 
   27300    313.86832     260.4476   -3014.9201   -2548.0648     408.0515    12439.306 
   27350    302.87596    260.14402   -3004.8006   -2554.2955    744.97831    12437.579 
   27400    305.46866    260.21634   -3007.2113   -2552.8498     649.4533    12436.132 
   27450    303.15647    260.16638   -3005.5461   -2554.6238    611.33244     12434.93 
   27500    310.56101    260.48765   -3016.2551   -2554.3191    326.53458     12433.94 
   27550    315.62147    260.67393   -3022.4645   -2553.0014    211.91704    12433.023 
   27600    301.36289    260.24017   -3008.0058   -2559.7513    620.17458    12432.135 
   27650    306.18916    260.45946   -3015.3154   -2559.8822    377.56154    12431.442 
   27700    304.78639     260.5621   -3018.7367   -2565.3901     327.2967    12430.863 
   27750     297.0016    260.22437   -3007.4789   -2565.7115     681.3811    12430.372 
   27800    291.00736    260.10808   -3003.6026   -2570.7512    906.05282     12430.15 
   27850    294.03378    260.27314   -3009.1047   -2571.7517    676.64461    12430.292 
   27900    289.07969    260.11617   -3003.8722   -2573.8881     689.7981    12430.719 
   27950    294.34154     260.3848   -3012.8267    -2575.016    429.62157    12431.411 
   28000      305.324    260.74235    -3024.745   -2570.5987    103.45621    12432.219 
   28050    288.16263    260.12907   -3004.3024   -2575.6823    649.90207    12433.026 
   28100    299.86711    260.56644   -3018.8813   -2572.8517    221.73465    12434.017 
   28150    291.55352    260.30134   -3010.0445   -2576.3808    451.98684    12435.059 
   28200    287.72252    260.14354   -3004.7847   -2576.8192    636.58295    12436.226 
   28250    297.60543    260.59234   -3019.7448   -2577.0793    169.33168    12437.599 
   28300     301.2404    260.71115    -3023.705   -2575.6327   -37.702498    12438.956 
   28350    299.18668    260.67928   -3022.6427   -2577.6252   -17.676926    12440.188 
   28400    303.36751    260.88069   -3029.3562     -2578.12    -125.5513     12441.28 
   28450    293.58573    260.40635    -3013.545   -2576.8585     331.3629    12442.212 
   28500    282.38084    259.98225   -2999.4084   -2579.3883    678.04704    12443.196 
   28550    275.82985    259.81817   -2993.9389   -2583.6629     836.5124    12444.442 
   28600    289.72716    260.37383    -3012.461   -2581.5138    356.90251    12446.014 
   28650    300.14753    260.73424   -3024.4747    -2578.028   -28.229591    12447.678 
   28700    304.85095    260.90456   -3030.1519   -2576.7092   -200.82848    12449.203 
   28750    295.80405    260.53076   -3017.6918   -2577.7057    76.410157    12450.521 
   28800    308.33277    260.94629   -3031.5431   -2572.9215    -350.6255    12451.713 
   28850    300.67505    260.62706   -3020.9021   -2573.6708   -62.130859    12452.627 
   28900    290.35487    260.29651   -3009.8837   -2578.0029     314.2819    12453.381 
   28950    300.75638    260.66894    -3022.298   -2574.9457    3.0830778    12454.159 
   29000    292.95074    260.41797   -3013.9323   -2578.1903    207.41726    12454.862 
   29050    305.24661    265.91561   -3030.5203   -2576.4891   -194.11184    12455.513 
   29100    303.71659     265.8041   -3026.8034    -2575.048    -68.38952    12455.986 
   29150    293.51715    265.35119   -3011.7063   -2575.1218    312.61884    12456.328 
   29200    300.26626    265.72075   -3024.0248   -2577.4015   -17.519904    12456.697 
   29250    290.12184     265.3239   -3010.7967   -2579.2624    312.96182    12456.997 
   29300    281.85353    265.00429   -3000.1429   -2580.9072    678.10713    12457.368 
   29350    293.62658    265.49585   -3016.5284   -2579.7811    284.64423    12457.979 
   29400    298.09122     265.5397   -3017.9901    -2574.602    46.230831    12458.665 
   29450    306.62506    265.90972   -3030.3239   -2574.2423   -327.96011    12459.243 
   29500      289.901    265.19205   -3006.4017   -2575.1959    346.98132    12459.605 
   29550    286.81115    265.03968   -3001.3227   -2574.7129    637.03951    12460.031 
   29600    310.69166    265.93018   -3031.0059   -2568.8756   -133.61159     12460.64 
   29650     302.4045    265.66493   -3022.1642   -2572.3604    39.958007    12461.136 
   29700    289.61317    265.09736   -3003.2453   -2572.4677    530.04078    12461.548 
   29750    279.32341    264.69892   -2989.9639   -2574.4915    848.75402    12462.158 
   29800    298.40157    265.54507   -3018.1691   -2574.3194    24.349962    12463.081 
   29850    300.20774       265.57   -3018.9999   -2572.4637     -106.791    12463.963 
   29900    307.92864    265.77349   -3025.7829   -2567.7623   -232.57005    12464.653 
   29950    298.46562    265.39766   -3013.2555   -2569.3105    111.01484    12465.143 
   30000    294.11889    265.19261   -3006.4203   -2568.9407    178.71904     12465.59 
   30050    299.72225    260.39081    -3013.027   -2567.2129   -5.5081706    12465.993 
   30100    301.48005    260.43562   -3014.5207   -2566.0919    -18.76055    12466.281 
   30150    302.94126    260.53151   -3017.7169   -2567.1147   -87.245038    12466.441 
   30200    295.55345    260.15457   -3005.1522   -2565.5389    197.06565    12466.447 
   30250    313.53164    260.88988   -3029.6628   -2563.3083   -399.80279    12466.374 
   30300    303.89327    260.57913   -3019.3042    -2567.286   -107.26475     12466.03 
   30350     296.0497     260.2366   -3007.8866   -2567.5351    322.32593    12465.501 
   30400    296.39342    260.12368   -3004.1228     -2563.26    463.12316    12465.021 
   30450    306.55287    260.49143   -3016.3811   -2560.4069    71.058838    12464.654 
   30500    301.23917    260.31524   -3010.5081   -2562.4377    170.56005    12464.232 
   30550    290.04228    259.91561   -2997.1871   -2565.7711    490.23514    12463.803 
   30600     303.6854     260.4157   -3013.8567   -2562.1477     61.88138    12463.478 
   30650    315.28167    260.83206   -3027.7353   -2558.7777    -217.1721    12463.066 
   30700    298.54324    260.01373   -3000.4576   -2556.3972    470.77728    12462.467 
   30750    305.65294    260.38329   -3012.7763   -2558.1407    274.94768    12461.945 
   30800    309.54154    260.46582   -3015.5273   -2555.1077    197.05471    12461.469 
   30850    305.96485     260.2639   -3008.7967   -2553.6971    348.59278    12461.004 
   30900    315.28446    260.50992   -3016.9975   -2548.0357    105.28276    12460.593 
   30950    323.99437    260.88791    -3029.597   -2547.6799   -219.65136    12460.109 
   31000    324.71229     260.9236   -3030.7868   -2547.8019   -301.14658    12459.383 
   31050    304.23546    255.25584   -3008.5281    -2556.001    281.39483    12458.399 
   31100    307.46872    255.39163   -3013.0544    -2555.718    189.26701    12457.392 
   31150    309.59627    255.37542    -3012.514    -2552.013    190.17968    12456.365 
   31200    310.12914    255.35472    -3011.824   -2550.5304      261.314    12455.304 
   31250    311.16126    255.25916   -3008.6388     -2545.81    343.26787    12454.259 
   31300    312.68644     255.3179   -3010.5968   -2545.4994    360.65772    12453.254 
   31350    305.64655    255.02932   -3000.9774   -2546.3513    631.85412    12452.328 
   31400    321.66423    255.69232   -3023.0773   -2544.6262    97.823993    12451.566 
   31450    310.83247    255.16854   -3005.6182   -2543.2784    581.15665    12450.778 
   31500    295.99786    254.66924   -2988.9746   -2548.7002    1145.1926    12450.187 
   31550    307.66642    255.18237   -3006.0789   -2548.4484    727.40169     12450.05 
   31600     324.3612    255.75843   -3025.2811   -2542.8184    138.13635    12450.166 
   31650    329.37065    256.00573   -3033.5242   -2543.6103   -106.66917    12450.243 
   31700    313.94489    255.48545   -3016.1818   -2549.2125    294.09253    12450.147 
   31750    304.02409    255.18261    -3006.087   -2553.8742    532.16366    12450.058 
   31800    311.04318    255.35945   -3011.9818   -2549.3287    306.62309    12450.111 
   31850    312.13836    255.37386   -3012.4621   -2548.1799    336.86617    12450.221 
   31900    314.51791    255.46142   -3015.3806   -2547.5591    360.54563    12450.367 
   31950    304.57978     255.0732     -3002.44   -2549.4007    645.15837    12450.598 
   32000    318.12895    255.69133   -3023.0443   -2549.8516     28.16788    12450.995 
   32050     313.1152    255.67351   -3022.4503   -2556.7152    23.282921    12451.306 
   32100    308.58531    255.54446   -3018.1487   -2559.1515     93.24617    12451.491 
   32150    322.15864    256.03476   -3034.4919   -2555.3054   -331.77793     12451.55 
   32200     302.4283    255.36273   -3012.0911   -2562.2519    325.94843    12451.359 
   32250    296.73052    255.18632   -3006.2107   -2564.8465    532.36699    12451.181 
   32300    295.26188    255.18353   -3006.1175   -2566.9378    468.10837    12451.162 
   32350    302.95819    255.51141   -3017.0471   -2566.4197    247.13228    12451.249 
   32400    292.38144    255.23274   -3007.7581   -2572.8628     542.2405    12451.376 
   32450    294.62353     255.4043   -3013.4768   -2575.2466    343.57671     12451.65 
   32500    294.26266    255.40572   -3013.5241   -2575.8306     225.4414    12452.001 
   32550    295.12285     255.4417   -3014.7233   -2575.7504    114.16177    12452.336 
   32600    295.89577    255.53513   -3017.8376   -2577.7151   -57.305831    12452.618 
   32650    305.87366    255.93275   -3031.0916   -2576.1278    -468.1493    12452.719 
   32700    297.17703    255.63912    -3021.304   -2579.2757   -155.95171    12452.454 
   32750    300.49235    255.82852   -3027.6172   -2580.6576    -242.0636    12451.934 
   32800    301.34984     255.8845   -3029.4834   -2581.2484   -284.26776    12451.142 
   32850    293.11515    255.61659   -3020.5531   -2584.5666    31.043877    12450.068 
   32900    291.66708    255.58739   -3019.5796   -2585.7469    60.596304    12448.855 
   32950    296.04756    255.84467   -3028.1555   -2587.8072   -163.83664     12447.53 
   33000    296.56471    255.97687   -3032.5623   -2591.4447     -197.499    12445.991 
   33050    293.09387    260.85454   -3028.4846   -2592.5297   -76.895918    12444.223 
   33100    286.39669    260.69412   -3023.1374    -2597.144    61.581337    12442.305 
   33150    298.17519    261.06627   -3035.5422   -2592.0292   -387.45029    12440.269 
   33200    295.97114    260.96988   -3032.3293   -2592.0947   -361.95138    12437.923 
   33250    286.83154    260.73943   -3024.6476   -2598.0074   -59.892031    12435.274 
   33300    293.04016    261.05432   -3035.1441    -2599.269   -200.45504    12432.443 
   33350    294.14695    261.05866   -3035.2886   -2597.7673   -203.13219    12429.397 
   33400    291.19278    260.90774   -3030.2581   -2597.1309    -100.0763    12426.121 
   33450    291.04249    260.87496   -3029.1652   -2596.2615   -77.765875    12422.651 
   33500    290.54848    260.89724   -3029.9078    -2597.739   -56.516997    12419.035 
   33550    289.53122    260.89293   -3029.7644   -2599.1087    -78.37687    12415.285 
   33600    297.09313    261.17698   -3039.2327   -2597.3292   -310.24547    12411.355 
   33650    286.88489    260.79339   -3026.4462   -2599.7267    134.92417     12407.17 
   33700    279.70569    260.51228   -3017.0761   -2601.0351    496.88417    12402.929 
   33750    289.18699    260.96021   -3032.0072   -2601.8634    128.89991    12398.822 
   33800    298.89793    261.35354   -3045.1179   -2600.5299   -230.76445    12394.673 
   33850    301.69896    261.47459    -3049.153   -2600.3986   -229.42716    12390.284 
   33900    299.83255     261.3988   -3046.6265   -2600.6484   -84.250481    12385.648 
   33950    283.27855    260.76698   -3025.5661   -2604.2107    521.87537    12380.877 
   34000    285.27459    260.82462   -3027.4875   -2603.1631     524.0049     12376.25 
   34050    310.20119    256.87648   -3062.5493   -2601.1485   -293.78604    12371.727 
   34100    300.65097    256.47647   -3049.2158   -2602.0203     3.678802    12366.983 
   34150    293.54707    256.14628   -3038.2095   -2601.5804    327.98915    12362.096 
   34200    286.40966    255.94329   -3031.4431   -2605.4304    614.21321    12357.251 
   34250    299.15046    256.41674   -3047.2246    -2602.261    265.08553    12352.577 
   34300     287.2603    256.03344   -3034.4481   -2607.1701    703.08657    12347.971 
   34350    290.92993    256.17003    -3039.001   -2606.2648    733.28087    12343.579 
   34400    287.29431    256.02579    -3034.193   -2606.8645    939.35422    12339.504 
   34450    303.71797    256.59291    -3053.097   -2601.3395    580.94775    12335.773 
   34500    302.60012    256.50696    -3050.232   -2600.1373    619.22955    12332.262 
   34550    301.81211    256.47356   -3049.1186   -2600.1959    552.77374    12328.947 
   34600    303.65099    256.50111   -3050.0372   -2598.3793    462.68465    12325.804 
   34650    318.39412    257.08571   -3069.5238   -2595.9367   -53.799753    12322.754 
   34700    291.59259    256.01899   -3033.9665   -2600.2446    884.78999    12319.645 
   34750    302.88864    256.42446   -3047.4819    -2596.958    602.82511    12316.802 
   34800    314.37063    256.90902    -3063.634   -2596.0315    236.54534     12314.16 
   34850    312.99677     256.9208   -3064.0266   -2598.4676    311.73492     12311.54 
   34900    308.51062    256.72912   -3057.6373   -2598.7512    514.09197    12308.963 
   34950    300.02808     256.4848   -3049.4933   -2603.2243    838.05661    12306.532 
   35000    287.73146    255.94499   -3031.4998   -2603.5211    1366.2369    12304.454 
   35050    312.12647    251.80862   -3060.2872   -2596.0228    624.83641    12302.907 
   35100    293.63893    251.12871   -3037.6237   -2600.8581    1225.0298    12301.642 
   35150    298.01673    251.29104   -3043.0345   -2599.7573    1097.2481    12300.877 
   35200    302.06064     251.3613   -3045.3766   -2596.0843    849.42641    12300.592 
   35250    314.86185      251.827   -3060.8999   -2592.5668    378.61682    12300.592 
   35300    307.29349    251.54396   -3051.4654   -2594.3896    701.47989    12300.701 
   35350    294.65582    251.07712    -3035.904   -2597.6258    1233.4302    12301.056 
   35400      300.949    251.28568   -3042.8559   -2595.2171    1020.2552    12301.901 
   35450     310.4298    251.67657   -3055.8858    -2594.145    556.72778    12303.158 
   35500    317.38466    251.87606   -3062.5353   -2590.4497    286.43313    12304.572 
   35550    309.45636    251.68317   -3056.1056   -2595.8127    566.08979     12306.02 
   35600     306.3195    251.55764   -3051.9215   -2596.2944    776.22557     12307.63 
   35650     296.7956    251.21879   -3040.6263   -2599.1653    1024.1518     12309.54 
   35700    302.31225    251.43078   -3047.6928   -2598.0262    680.17367    12311.835 
   35750    310.51347    251.81116   -3060.3721   -2598.5069    312.77616     12314.36 
   35800     309.7374    251.66471   -3055.4904   -2594.7795    377.16226    12316.939 
   35850    305.71342    251.55335   -3051.7782   -2597.0527    444.60594    12319.589 
   35900    312.50318     251.7467   -3058.2234   -2593.3986    259.70393    12322.322 
   35950     303.4723    251.54433   -3051.4778   -2600.0857    524.33237    12325.083 
   36000    297.53704    251.34169    -3044.723   -2602.1592     703.3183    12327.993 
   36050    295.27587    246.28642   -3042.8806   -2603.6801    679.06073    12331.145 
   36100    307.70846     246.7791   -3059.3032   -2601.6102    191.78953    12334.479 
   36150    309.29298    246.84506   -3061.5021   -2601.4522     81.03008    12337.785 
   36200    307.47704    246.79746   -3059.9155   -2602.5667    122.63602    12340.984 
   36250    302.64009    246.55855   -3051.9516   -2601.7974    227.80073    12344.099 
   36300    322.72411    247.27804   -3075.9346    -2595.907   -439.03374    12347.121 
   36350    300.94594    246.68578   -3056.1926   -2608.5583    196.71452    12349.818 
   36400     299.5386    246.68139   -3056.0462   -2610.5052    124.80857    12352.414 
   36450    305.37859    246.92496   -3064.1653   -2609.9378   -231.27538    12354.916 
   36500    299.43899    246.78569    -3059.523   -2614.1302   -178.09969    12357.156 
   36550    307.13982    247.02266   -3067.4221   -2610.5749   -430.43664    12359.109 
   36600     298.8929    246.80599   -3060.1997   -2615.6192   -233.76317    12360.696 
   36650     300.0689    246.81781   -3060.5937   -2614.2639   -200.86459    12361.962 
   36700    289.14658    246.45941    -3048.647   -2618.5634    121.66041    12362.988 
   36750    293.43024    246.63389   -3054.4631   -2618.0079   -129.45352    12363.893 
   36800    291.76529    246.66779   -3055.5929   -2621.6142   -299.17433     12364.57 
   36850    292.65306    246.71908   -3057.3026   -2622.0034   -341.00256    12364.925 
   36900    287.31966    246.51682   -3050.5607   -2623.1945   -24.152478    12364.943 
   36950    289.44898    246.62042    -3054.014   -2623.4806   -78.428522    12364.779 
   37000    299.66031    247.04421   -3068.1402   -2622.4182    -571.3437    12364.387 
   37050    297.08021    247.00551   -3066.8504   -2624.9661   -616.68204    12363.536 
   37100    292.27583    246.90379   -3063.4596   -2628.7215   -467.46639    12362.192 
   37150    293.34072    246.94862   -3064.9539   -2628.6318   -535.65229    12360.412 
   37200    291.87682    246.96659   -3065.5531   -2631.4085   -554.08268    12358.168 
   37250    277.92499     246.4364     -3047.88   -2634.4876    18.840024    12355.486 
   37300    272.02321    246.23921    -3041.307   -2636.6931      249.926    12352.657 
   37350    286.56305    246.81157   -3060.3856   -2634.1448   -185.86734    12349.775 
   37400    283.87649    246.69096   -3056.3652   -2634.1204   -58.325427    12346.654 
   37450    288.09362    246.89536   -3063.1787   -2634.6612   -215.19742    12343.327 
   37500    298.37163    247.24687   -3074.8957   -2631.0905   -480.76788    12339.721 
   37550    287.58099    246.92195   -3064.0649     -2636.31   -22.760587    12335.714 
   37600    289.51521    247.05371   -3068.4571   -2637.8252    1.7466087    12331.506 
   37650    292.26311    247.16686   -3072.2288   -2637.5096   -84.431326    12327.141 
   37700    295.95897    247.43253   -3081.0842   -2640.8676   -298.43627    12322.541 
   37750     280.1188    246.86357   -3062.1191   -2645.4637    143.08192     12317.67 
   37800    284.40773    246.97999   -3065.9998   -2642.9648    124.37038    12312.683 
   37850    286.78517    247.03528   -3067.8427   -2641.2715    118.81605     12307.61 
   37900    290.44972    247.16735    -3072.245    -2640.223    3.8590524    12302.433 
   37950    286.71198    247.03722   -3067.9072   -2641.4449    112.26416    12297.111 
   38000    285.81695    246.95737   -3065.2458   -2640.1147    272.08996    12291.705 
   38050    304.04571    247.63421   -3087.8069    -2635.562    -199.7039    12286.246 
   38100    300.71726    247.49862   -3083.2874   -2635.9932   -20.915547    12280.548 
   38150    299.35675    247.54542   -3084.8474   -2639.5769    134.44487    12274.656 
   38200    292.35079    247.24152   -3074.7172   -2639.8676    448.02705    12268.692 
   38250    292.16147    247.19438   -3073.1461   -2638.5781    439.15583    12262.798 
   38300    304.02782    247.58573    -3086.191   -2633.9727    119.78867    12256.962 
   38350    302.58142    247.50696   -3083.5655   -2633.4985    298.11925    12251.043 
   38400    298.35165    247.38424   -3079.4746   -2635.6992    552.95316    12245.127 
   38450    305.71275    247.73518   -3091.1728   -2636.4483    284.66945    12239.315 
   38500    305.89703     247.5895   -3086.3166    -2631.318    404.32062    12233.514 
   38550    296.86668    247.27017   -3075.6724   -2634.1057    742.00694    12227.795 
   38600    300.30762    247.44851   -3081.6171   -2634.9323    614.12451    12222.267 
   38650    292.53045    247.19732   -3073.2441   -2638.1272    994.39594    12216.932 
   38700     291.6019    247.07729    -3069.243   -2635.5073    1186.6911    12211.984 
   38750    307.97807    247.69872   -3089.9574   -2631.8634    690.82346    12207.477 
   38800    310.45082    247.69443   -3089.8143   -2628.0422    717.06549    12203.208 
   38850    296.28961    247.13746   -3071.2485   -2630.5402    1272.3229    12199.189 
   38900    301.21106    247.41584   -3080.5281   -2632.4995    1170.4095    12195.651 
   38950    301.71839    247.42422   -3080.8072    -2632.024     1249.434    12192.599 
   39000    302.51419    247.50971   -3083.6571   -2633.6902    1222.3852    12190.051 
   39050    316.17629    247.91079   -3097.0263    -2626.738    783.90251    12187.981 
   39100    309.88214     247.6091     -3086.97   -2626.0438    1009.1998     12186.22 
   39150    313.90518    247.70045   -3090.0151   -2623.1049    889.19991    12184.833 
   39200     326.6995    248.18753    -3106.251   -2620.3102    562.96974    12183.744 
   39250    308.90591    247.51098   -3083.6993   -2624.2252    1281.7956    12182.845 
   39300    307.56714    247.41921   -3080.6403   -2623.1575    1321.5611    12182.433 
   39350    294.66799    246.96231   -3065.4103    -2627.114     1677.912    12182.594 
   39400    298.43513     247.1056   -3070.1866    -2626.287    1662.3708    12183.479 
   39450    294.17984    246.94066   -3064.6888   -2627.1186    1814.0874    12185.142 
   39500    316.89823    247.62359    -3087.453   -2616.0909    1154.8626    12187.583 
   39550    318.46553    247.69827   -3089.9424   -2616.2491    1072.5799    12190.531 
   39600     311.6038    247.37476   -3079.1588   -2615.6717     1223.622    12193.914 
   39650    306.61505    247.11819   -3070.6064   -2614.5397    1332.1571    12197.816 
   39700    302.01635    247.03474   -3067.8248   -2618.5984    1441.8236    12202.285 
   39750     304.9515     247.1686   -3072.2866   -2618.6943    1285.8964    12207.369 
   39800    295.60583    246.91402   -3063.8006   -2624.1094    1478.4012    12213.021 
   39850    312.72811    247.45789   -3081.9298   -2616.7705    908.33595    12219.277 
   39900    309.38947    247.27155   -3075.7184    -2615.525     854.5544    12225.926 
   39950    320.66345    247.66711   -3088.9037   -2611.9411    327.02188     12232.85 
   40000    316.02444    247.54097   -3084.6989   -2614.6365    386.10999    12239.853 
   40050    302.68799    251.97023   -3065.6743   -2615.4488    775.12836    12246.961 
   40100    318.13944    252.49109   -3083.0363    -2609.828    153.85976    12254.295 
   40150    297.51648    251.76302   -3058.7674   -2616.2342    757.14102    12261.652 
   40200    297.01493    251.67321   -3055.7738   -2613.9866    837.42064    12269.255 
   40250    308.62704    252.04669    -3068.223   -2609.1637    426.39861    12277.171 
   40300    307.57718     252.0834   -3069.4466   -2611.9489    322.22282    12285.216 
   40350     299.9211    251.81017   -3060.3391   -2614.2292    474.12007    12293.325 
   40400    296.44664    251.59575   -3053.1916   -2612.2496     573.7046    12301.572 
   40450    302.34852    251.85693   -3061.8978   -2612.1773     361.6306    12309.992 
   40500    295.57218    251.63092   -3054.3639   -2614.7227    505.51111    12318.513 
   40550     292.8365    251.57093   -3052.3645   -2616.7924    391.32313     12327.17 
   40600    299.49522    251.67037   -3055.6789   -2610.2024    70.473365    12335.905 
   40650    295.95805    251.48865   -3049.6218   -2609.4067    201.02879    12344.576 
   40700    297.74789    251.51384   -3050.4614    -2607.584    139.22466    12353.239 
   40750    317.93643    252.19603   -3073.2011   -2600.2948   -660.07337    12361.804 
   40800    309.66919    251.87579   -3062.5262   -2601.9167   -431.93709    12369.911 
   40850    295.37459    251.42894   -3047.6315   -2608.2842    31.937285    12377.655 
   40900    303.83086     251.6391   -3054.6367   -2602.7113   -291.88665    12385.246 
   40950    305.54963    251.66229   -3055.4095   -2600.9276   -415.63027    12392.548 
   41000     296.0349    251.22309   -3040.7696   -2600.4401   -124.82278    12399.495 
   41050    296.51764    256.29933   -3043.3109   -2602.2633   -259.02123    12406.224 
   41100    294.67091    256.21746    -3040.582   -2602.2814   -319.54258    12412.702 
   41150    294.14799    256.12913   -3037.6376   -2600.1147   -283.26599    12418.881 
   41200    290.45954    255.91896   -3030.6321   -2598.5956   -134.57174      12424.8 
   41250    294.19162    256.05534    -3035.178   -2597.5903   -255.15702    12430.511 
   41300    299.16031    256.18514   -3039.5048   -2594.5265   -414.77065    12435.957 
   41350    292.36336    255.83316   -3027.7722   -2592.9038   -152.54422    12441.068 
   41400    298.29937    256.00053    -3033.351   -2589.6533   -317.87761    12445.915 
   41450     302.4223    256.15951   -3038.6502     -2588.82   -400.53735    12450.464 
   41500     284.6855     255.4906   -3016.3533   -2592.9052    240.86124    12454.697 
   41550    292.17756    255.73333   -3024.4445   -2589.8525   -104.29291     12458.88 
   41600    301.91927    256.11561   -3037.1871   -2588.1051    -522.3983    12462.882 
   41650    285.33953    255.35074   -3011.6914   -2587.2705     95.15697    12466.526 
   41700    298.58243    255.77737   -3025.9123   -2581.7936   -264.10991    12470.018 
   41750     298.7868    255.74153   -3024.7176   -2580.2949   -320.51887    12473.269 
   41800    307.06021    256.09405   -3036.4684   -2579.7397   -593.98641    12476.189 
   41850    291.17351    255.45399    -3015.133   -2582.0345   -15.398678    12478.694 
   41900    302.45223    255.83935   -3027.9784   -2578.1036   -210.83519    12480.993 
   41950    308.95456    256.08568   -3036.1892   -2576.6427   -362.24815    12483.042 
   42000    294.97803    255.41336   -3013.7787   -2575.0213      158.984    12484.793 
   42050     296.0755    255.45034   -3015.0113   -2574.6214    105.49055    12486.463 
   42100     293.2283    255.21077   -3007.0258   -2570.8709    109.07546    12488.088 
   42150    306.31406    255.57956   -3019.3188   -2563.6998    -366.3326    12489.603 
   42200    307.40699    255.63551   -3021.1838   -2563.9392   -505.89336    12490.791 
   42250    312.65425    255.77298   -3025.7659   -2560.7164   -607.61286    12491.537 
   42300    295.54009    255.10803   -3003.6011   -2564.0076    75.645893    12491.843 
   42350    293.25417    255.05238   -3001.7461   -2565.5527    276.77929    12492.028 
   42400    299.16271    255.19644   -3006.5478    -2561.566    180.43411    12492.225 
   42450    312.49979    255.64314   -3021.4379   -2556.6182   -181.82515    12492.361 
   42500    306.58308     255.3881   -3012.9367   -2556.9176    34.920951    12492.304 
   42550    300.12806    255.09631   -3003.2104   -2556.7926    283.71575    12492.129 
   42600    304.04569    255.28648   -3009.5492   -2557.3043    110.52582     12491.95 
   42650    306.52347       255.38   -3012.6665   -2556.7361   -17.521267    12491.713 
   42700     300.9979    255.14789   -3004.9297   -2557.2181    227.22869    12491.344 
   42750    312.32254    255.57696   -3019.2321    -2554.676   -55.714584    12490.928 
   42800    301.94358    255.19138   -3006.3793   -2557.2611    292.89127    12490.375 
   42850    294.87925    254.88327   -2996.1088   -2557.4983    547.64548    12489.838 
   42900    304.10897    255.15707   -3005.2356   -2552.8966    204.44243    12489.454 
   42950    302.92889    255.15146   -3005.0487    -2554.465    211.46099    12489.069 
   43000    304.62091    255.20076   -3006.6921   -2553.5916      199.515    12488.662 
   43050    293.26894    254.85102   -2995.0342   -2558.8188    612.86476    12488.247 
   43100    294.95412    254.88939   -2996.3132   -2557.5913    622.37414     12488.02 
   43150    296.59647     254.9252   -2997.5067   -2556.3419    472.65344    12488.026 
   43200    306.55824    255.24097   -3008.0322     -2552.05    170.55608    12488.125 
   43250    302.63233    255.03498   -3001.1659   -2551.0232    383.06406    12488.224 
   43300    314.33242    255.46627   -3015.5423   -2547.9966    69.589887    12488.363 
   43350    304.60175    255.10216   -3003.4053   -2550.3333     367.4115    12488.444 
   43400    312.08226    255.45619   -3015.2063   -2551.0076    15.872321    12488.547 
   43450    308.74358     255.2598   -3008.6601   -2549.4274    86.233125    12488.545 
   43500    322.10667    255.65279   -3021.7596   -2542.6504   -380.81464    12488.412 
   43550    320.92001    255.58377   -3019.4589   -2542.1147   -344.85106     12487.95 
   43600      311.126    255.21939    -3007.313   -2544.5367    33.242534    12487.168 
   43650    315.46199     255.3707   -3012.3566   -2543.1308   -58.727525    12486.229 
   43700    308.23283     255.0817   -3002.7232   -2544.2502    285.74313    12485.125 
   43750    300.34064    254.82424   -2994.1415   -2547.4075    666.03056     12484.04 
   43800     304.4671    255.00283   -3000.0943   -2547.2225    555.25328    12483.176 
   43850    303.47507    254.91743   -2997.2477   -2545.8516     570.3488    12482.488 
   43900    304.00933    255.01678   -3000.5593   -2548.3685    484.59072    12481.977 
   43950    313.80124    255.42559   -3014.1862   -2547.4306    20.489839    12481.586 
   44000    317.63014    255.54015    -3018.005   -2545.5542   -217.16364    12481.083 
[...]
   89400    305.21613    242.75059   -3091.6863   -2637.7004    822.46013    12186.411 
   89450    299.07219    242.52867   -3084.2891   -2639.4419    1134.1756    12181.727 
   89500    304.81262    242.79954   -3093.3179   -2639.9322     1040.221     12177.45 
   89550    295.88127    242.49357   -3083.1189   -2643.0179    1346.7045     12173.59 
   89600    297.12817    242.60196   -3086.7322   -2644.7765     1294.525     12170.27 
   89650    307.99644    242.98745   -3099.5818   -2641.4604    878.03369    12167.463 
   89700    308.52266    243.04979   -3101.6597   -2642.7556    795.73377    12164.973 
   89750    301.98038    242.87351   -3095.7837   -2646.6107    1010.3742    12162.752 
   89800    304.38938     242.9346   -3097.8199   -2645.0637     945.5736    12160.898 
   89850    301.56717      242.899   -3096.6334   -2648.0751    1089.4923     12159.38 
   89900     285.0461    242.33644   -3077.8814    -2653.897    1569.6117    12158.302 
   89950    310.07291    243.23016    -3107.672    -2646.462    565.34325    12157.823 
   90000    314.84845    243.45651   -3115.2171   -2646.9039    328.63527    12157.517 
   90050    297.56758    237.86369   -3095.4564   -2652.8471     959.4481    12157.245 
   90100    297.77041    237.86633   -3095.5442   -2652.6333    939.19425    12157.279 
   90150     315.2727    238.46066   -3115.3555   -2646.4112    322.92947    12157.595 
   90200     306.7441    238.28631   -3109.5435   -2653.2849    506.51424    12157.943 
   90250    304.85386    238.28632   -3109.5439   -2656.0969    509.31843    12158.359 
   90300     299.4561    238.14022    -3104.674   -2659.2558    700.30439    12158.887 
   90350    296.74747    238.03153   -3101.0511   -2659.6617    898.17122     12159.62 
   90400    304.58828    238.26691   -3108.8971   -2655.8451    690.02455    12160.626 
   90450    296.96428    238.04362   -3101.4539   -2659.7421    773.24613    12161.844 
   90500    292.29691    237.93382   -3097.7939   -2663.0244    837.16333    12163.289 
   90550    292.08124    238.03707   -3101.2356   -2666.7869    795.67129    12165.002 
   90600    302.38856    238.47162   -3115.7207   -2665.9406    389.30652    12166.943 
   90650    296.13185    238.31018   -3110.3394   -2669.8657    566.48317    12168.939 
   90700    289.93195    238.07962    -3102.654   -2671.4022    736.80049    12171.068 
   90750    288.93534    238.03693    -3101.231   -2671.4616      549.829    12173.431 
   90800    302.12167    238.65668   -3121.8895   -2672.5064   -49.776498    12175.871 
   90850     293.1947    238.31626   -3110.5419    -2674.437    246.14841    12178.159 
   90900    282.08878     237.9804   -3099.3466   -2679.7609    553.39049    12180.423 
   90950    295.69043    238.51953   -3117.3178   -2677.5007    56.375465    12182.751 
   91000    294.07859    238.58682   -3119.5608   -2682.1412    -9.886182    12184.965 
   91050    295.61682    238.69919   -3123.3062   -2683.5986   -134.91078    12186.988 
   91100    276.80711    238.11101   -3103.7004   -2691.9708    288.77556    12188.803 
   91150    280.00572    238.16821    -3105.607   -2689.1197    79.313886    12190.561 
   91200    270.52155    237.85534    -3095.178   -2692.7977    346.53372    12192.224 
   91250     278.8913     238.2325     -3107.75   -2692.9203    52.509451    12193.871 
   91300    291.36371     238.6623   -3122.0768   -2688.6953   -401.36715    12195.376 
   91350    282.98551     238.3621   -3112.0701   -2691.1506   -232.47236    12196.522 
   91400     275.4821    238.17544    -3105.848   -2696.0893   -125.72197    12197.365 
   91450    290.52505    238.69363   -3123.1209   -2690.9869   -573.62997     12197.93 
   91500    272.13403    238.10606   -3103.5353   -2698.7565    -9.887989    12198.071 
   91550    280.14155    238.40164    -3113.388   -2696.6987   -247.22075    12197.985 
   91600     277.2911    238.33265   -3111.0883   -2698.6388   -108.18178    12197.623 
   91650    264.17216    237.87147   -3095.7156   -2702.7795    371.48186    12197.052 
   91700    277.52874     238.4056     -3113.52    -2700.717   -43.854016    12196.469 
   91750    287.40349    238.78584   -3126.1948   -2698.7039   -377.32457    12195.698 
   91800    280.64982    238.52643   -3117.5478   -2700.1025   -161.42117    12194.586 
   91850     277.0879    238.42126    -3114.042   -2701.8948   -76.715165    12193.208 
   91900    280.26538    238.47702   -3115.9007   -2699.0272   -136.22986    12191.605 
   91950    275.71425    238.35509   -3111.8363   -2701.7322   -35.048779    12189.769 
   92000    284.18673    238.65328   -3121.7761   -2699.0699   -322.44366    12187.703 
   92050    287.70465    233.67009   -3122.3363   -2694.3974   -264.14764    12185.288 
   92100    282.02008    233.39819   -3113.2731   -2693.7896    14.625018    12182.554 
   92150    285.29581    233.61064   -3120.3546   -2695.9987   -165.79508    12179.617 
   92200    291.78387     233.7259   -3124.1966   -2690.1902   -257.38721    12176.386 
   92250    283.10743    233.50043   -3116.6809     -2695.58    40.960567    12172.834 
   92300    292.85423    233.80472   -3126.8241   -2691.2256   -206.86136    12169.076 
   92350    282.39928    233.43556   -3114.5187   -2694.4711    101.03169    12165.039 
   92400    291.09613    233.71996   -3123.9988   -2691.0153   -94.121843     12160.82 
   92450    283.21739     233.4209   -3114.0301   -2692.7657    195.50779    12156.384 
   92500    281.80005    233.35732   -3111.9108   -2692.7546    313.58806    12151.835 
   92550    291.31209    233.69252   -3123.0841   -2689.7794    128.37537    12147.224 
   92600    290.99376    233.60717   -3120.2389   -2687.4078    260.84873    12142.494 
   92650    282.11363    233.31518   -3110.5061   -2690.8834    590.54183    12137.713 
   92700    281.36677    233.32413   -3110.8043   -2692.2926    621.63673    12133.026 
   92750    286.43271    233.43472   -3114.4906   -2688.4436    540.78634    12128.461 
   92800    298.66271    233.77722   -3125.9075   -2681.6693    252.35592    12123.978 
   92850      306.623    234.06336   -3135.4452   -2679.3668   0.27099281    12119.436 
   92900    309.41674    234.21124   -3140.3746   -2680.1406   -61.997455    12114.678 
   92950    301.50776     233.9492     -3131.64     -2683.17    332.88983    12109.685 
   93000    294.58805    233.68676   -3122.8919   -2684.7145    763.51806     12104.65 
   93050    290.17339    233.54224   -3118.0748   -2686.4639    1013.3995    12099.804 
   93100    279.45507    233.26828   -3108.9425   -2693.2743    1303.0891      12095.3 
   93150    282.71757    233.28373   -3109.4576   -2688.9367    1214.7853    12091.274 
   93200    290.16198    233.51701   -3117.2336   -2685.6396    953.88017    12087.705 
   93250    307.96453    234.10956   -3136.9852   -2678.9113    531.86824    12084.427 
   93300     296.1418    233.67639   -3122.5465    -2682.058    1015.0811    12081.277 
   93350    290.49927    233.50173   -3116.7243   -2684.6286    1204.9908    12078.459 
   93400    319.20512    234.44227   -3148.0758   -2673.2824    385.17577    12076.005 
   93450    292.62972    233.55569    -3118.523   -2683.2585    1283.1497    12073.654 
   93500    294.73265    233.68715   -3122.9049   -2684.5124    1284.7767    12071.714 
   93550     301.6596    233.81985   -3127.3285   -2678.6327    1134.5855    12070.265 
   93600    297.17718    233.61889   -3120.6296    -2678.601    1382.1786    12069.255 
   93650    298.78275    233.62958   -3120.9862   -2676.5695    1388.6774    12068.752 
   93700    289.75362    233.30256   -3110.0855   -2679.0989     1546.578    12068.813 
   93750    301.39393    233.75915   -3125.3049   -2677.0043    1055.8874    12069.456 
   93800    301.41494    233.72902   -3124.3007   -2675.9689    993.68245     12070.49 
   93850    299.39076    233.64797   -3121.5991    -2676.278    1095.0652    12071.884 
   93900    307.21304    233.91273   -3130.4242   -2673.4681    932.25432    12073.663 
   93950    302.00676    233.72142   -3124.0473   -2674.8351    1133.2607    12075.766 
   94000    299.95776    233.59403   -3119.8008   -2673.6364     1262.312    12078.282 
   94050    295.94985    228.42955   -3114.3184   -2674.1154     1355.461    12081.289 
   94100    301.10149    228.48162    -3116.054   -2668.1883    1180.2255    12084.805 
   94150    311.07553    228.79927   -3126.6424   -2663.9411    882.83504    12088.745 
   94200    295.44745    228.26836   -3108.9452   -2669.4895    1360.6319    12093.022 
   94250    310.63048    228.78045   -3126.0151   -2663.9758    865.89828    12097.768 
   94300    306.98968    228.56641   -3118.8803   -2662.2564    845.43984    12102.819 
   94350    305.70298    228.57958   -3119.3194   -2664.6094    837.06792    12108.122 
   94400    293.56664    228.10778   -3103.5927   -2666.9346    1193.2851    12113.713 
   94450    308.16395    228.46036   -3115.3454   -2656.9749    806.38794    12119.714 
   94500    300.71282    228.24186   -3108.0621   -2660.7746    1039.6349     12126.01 
   94550    302.12633    228.31339   -3110.4465   -2661.0565    926.07781    12132.656 
   94600    307.94774    228.54221   -3118.0737   -2660.0248    625.15056    12139.615 
   94650    307.25723    228.45895   -3115.2982   -2658.2764    563.10947     12146.76 
   94700    311.82313    228.55495   -3118.4983    -2654.685    374.31621    12154.014 
   94750    310.21377    228.53352   -3117.7839   -2656.3644    387.04301    12161.306 
   94800    308.34864     228.4496   -3114.9867   -2656.3414    393.55643     12168.63 
   94850    312.71013    228.49171   -3116.3903   -2651.2577    181.99396    12175.972 
   94900    306.09947    228.32023   -3110.6742   -2655.3744    319.74884    12183.249 
   94950    302.92877    228.22424   -3107.4748   -2656.8912    344.99242    12190.514 
   95000    298.78795     228.0518   -3101.7266   -2657.3021    292.18703    12197.777 
   95050    284.68484    232.55606   -3085.2019   -2661.7547    645.25578    12205.056 
   95100    302.06846    233.10848   -3103.6162   -2654.3122    159.53934    12212.478 
   95150    300.74534    232.99958   -3099.9859     -2652.65    138.49479    12219.862 
   95200    302.04399    232.98911    -3099.637   -2650.3695    21.858572    12227.147 
   95250    299.26927    232.97577   -3099.1922   -2654.0519     36.42783    12234.297 
   95300    303.82075    233.12065   -3104.0215   -2652.1112   -99.452831    12241.291 
   95350    290.74232    232.65537   -3088.5123   -2656.0551    228.98118    12248.089 
   95400    294.15537     232.7604   -3092.0132   -2654.4794    53.377131     12254.81 
   95450     290.4024    232.68252   -3089.4173   -2657.4657   -40.537486    12261.416 
   95500    302.10673    233.02227   -3100.7422   -2651.3814   -514.55396    12267.798 
   95550    295.70981    232.69888   -3089.9625   -2650.1166   -336.40133    12273.762 
   95600    308.28952    233.16244   -3105.4145   -2646.8572   -715.96711    12279.345 
   95650    301.19888    232.84886   -3094.9621   -2646.9515    -520.6253    12284.406 
   95700    292.10897    232.46774   -3082.2582   -2647.7682   -182.43359    12288.999 
   95750    295.80086    232.67738   -3089.2459   -2649.2645   -337.27769    12293.273 
   95800    288.42767    232.36877    -3078.959   -2649.9447   -176.29072    12297.209 
   95850     296.3571    232.64196   -3088.0655   -2647.2568   -514.50156    12300.839 
   95900    299.01356    232.64339   -3088.1131   -2643.3531   -523.64666    12304.002 
   95950    287.19116    232.19986   -3073.3286   -2646.1536   -95.978049    12306.725 
   96000    298.34853    232.48405   -3082.8015   -2639.0307    -489.4854    12309.164 
   96050    300.45576    232.50841   -3083.6138   -2636.7086   -661.59543    12311.149 
   96100    310.48719    232.88851   -3096.2838   -2634.4577   -985.47935    12312.558 
   96150    302.39859     232.5507   -3085.0233   -2635.2283   -566.96606    12313.256 
   96200    288.57097    232.03233   -3067.7444   -2638.5169   -27.857633    12313.445 
   96250    302.71933    232.43795   -3081.2651   -2630.9931   -348.86278    12313.364 
   96300    307.51369    232.57428   -3085.8095   -2628.4062   -456.87217    12312.893 
   96350    298.08469    232.25826   -3075.2755   -2631.8971   -201.99969    12311.974 
   96400    298.76758    232.29982   -3076.6605   -2632.2664   -290.42583    12310.694 
   96450    297.15545     232.2018   -3073.3933   -2631.3971   -240.78072    12309.061 
   96500    303.02595    232.39606   -3079.8685   -2629.1404   -316.33504    12307.068 
   96550    299.92118    232.23273   -3074.4243   -2628.3143   -191.70737    12304.703 
   96600    307.65171    232.53753   -3084.5844   -2626.9758   -471.94988    12301.977 
   96650    305.71435    232.41441   -3080.4803   -2625.7534   -294.85004    12298.785 
   96700    305.51567     232.2611     -3075.37   -2620.9386   -96.750594    12295.218 
   96750     320.4549    232.63939   -3087.9797   -2611.3273   -375.96347    12291.323 
   96800    300.07319    231.91802   -3063.9341   -2617.5979    272.32556    12287.043 
   96850    307.10248    232.23559   -3074.5196   -2617.7279    70.596863    12282.605 
   96900    310.33732    232.33998   -3077.9992   -2616.3959    119.22445     12277.98 
   96950    322.96415     232.6763   -3089.2101   -2608.8254   -100.41336    12273.161 
   97000    308.20311    232.22239   -3074.0797   -2615.6509    435.86065    12268.084 
   97050    309.99965     232.3235     -3077.45    -2616.349    531.79039    12262.956 
   97100    309.07129    232.28071   -3076.0236   -2616.3035     671.8126    12257.877 
   97150    305.16413    232.13651   -3071.2169   -2617.3083    781.77665    12252.932 
   97200    324.69728    232.78449   -3092.8164   -2609.8538    157.52538    12248.126 
   97250    314.06714    232.39716   -3079.9052   -2612.7541    530.69442    12243.214 
   97300     314.7428    232.41923    -3080.641    -2612.485    528.24169    12238.323 
   97350    323.76739    232.63072   -3087.6906   -2606.1112    364.37678    12233.461 
   97400    303.83534    232.00982   -3066.9941   -2615.0621    987.49579    12228.611 
   97450    323.33531    232.57944   -3085.9812   -2605.0444     439.0659    12223.986 
   97500    340.39398    233.12622   -3104.2074   -2597.8971   -13.433604    12219.363 
   97550    343.43523    233.18416   -3106.1386   -2595.3047    69.133053    12214.484 
   97600     317.4033    232.33263   -3077.7544   -2605.6411    906.59589    12209.415 
   97650    316.37655    232.43616   -3081.2053   -2610.6192     912.2403    12204.528 
   97700    321.11267    232.64397   -3088.1323   -2610.5016    762.97997    12199.891 
   97750    312.44607    232.23048   -3074.3493   -2609.6095    1098.0008    12195.451 
   97800    312.60013    232.32182    -3077.394    -2612.425    1161.3629     12191.32 
   97850    311.48991     232.3557   -3078.5232   -2615.2056    1320.5245    12187.601 
   97900    317.14941    232.65914   -3088.6379   -2616.9022    1129.9518    12184.354 
   97950    320.38075    232.82801   -3094.2669   -2617.7248    955.06229    12181.485 
   98000    321.64362    232.91052   -3097.0173   -2618.5968    849.84028    12178.909 
   98050    317.89417    232.75384   -3091.7946   -2618.9512    933.43691     12176.57 
   98100    312.57348    232.62493   -3087.4978   -2622.5685    1115.7737    12174.522 
   98150    326.46461    233.08378   -3102.7926   -2617.2013    716.44005    12172.825 
   98200    309.83512    232.70013   -3090.0042    -2629.148    1106.8815    12171.344 
   98250    308.21244    232.74526   -3091.5088   -2633.0661    1080.9624     12170.23 
   98300    325.89646    233.32763   -3110.9209   -2626.1746     453.0442    12169.448 
   98350    322.75575    233.24473   -3108.1576   -2628.0828    570.62934    12168.721 
   98400    309.00203    232.91704   -3097.2348   -2637.6177    1019.6327    12168.105 
   98450    308.07924    232.94959   -3098.3196   -2640.0751    923.81546      12167.8 
   98500    315.17316    233.14518   -3104.8393   -2636.0431    564.80274    12167.776 
   98550    304.78072      232.879   -3095.9667   -2642.6285     731.4534    12167.875 
   98600    307.29465    233.10221   -3103.4069   -2646.3294    561.92031    12168.134 
   98650    312.74402    233.35234   -3111.7446   -2646.5615    360.47309    12168.515 
   98700    307.55507    233.19853   -3106.6175   -2649.1527    499.49094    12168.911 
   98750    322.89302    233.75311   -3125.1038   -2644.8249   -77.094206    12169.306 
   98800    304.59037    233.19441   -3106.4805   -2653.4254     312.1455    12169.538 
   98850    316.74215    233.66439   -3122.1463   -2651.0163   -81.523391    12169.683 
   98900      313.257     233.4861   -3116.2034   -2650.2574    -3.590379    12169.604 
   98950    303.70535    233.29431   -3109.8102   -2658.0715    315.05802    12169.322 
   99000    292.10952    232.89188   -3096.3961   -2661.9053    704.07301    12169.038 
   99050    298.20282    238.10701   -3103.5671    -2660.013    482.82041    12168.907 
   99100    295.14943    238.08591   -3102.8636   -2663.8512    538.85175    12168.857 
   99150    286.32227    237.66731   -3088.9102   -2663.0275    837.50773     12168.93 
   99200     298.9414    238.05542   -3101.8475   -2657.1948    515.25637    12169.234 
   99250    302.16868    238.20089   -3106.6964   -2657.2433    406.79925    12169.648 
   99300     292.3468    237.87938   -3095.9794   -2661.1357    673.49823    12170.119 
   99350    296.99991    238.08443   -3102.8145   -2661.0496    581.50537     12170.75 
   99400    299.95133    238.16506   -3105.5019    -2659.347    488.19966    12171.531 
   99450    318.88381    238.84445   -3128.1482   -2653.8327   -177.59211    12172.362 
   99500    302.74156    238.25819   -3108.6064   -2658.3013    271.51148    12172.981 
   99550    296.53036    238.10365   -3103.4549   -2662.3885    433.85051    12173.539 
   99600    308.54879    238.50408   -3116.8027   -2657.8598    88.692781    12174.128 
   99650    297.49775    238.15414   -3105.1381   -2662.6328    381.23853    12174.632 
   99700     305.7133    238.49114   -3116.3714    -2661.646    106.50513    12175.105 
   99750    291.09339    238.08215   -3102.7384    -2669.759    538.60478    12175.488 
   99800    289.30114    237.99196   -3099.7321   -2669.4186    630.72408    12175.973 
   99850    297.61949    238.27804   -3109.2681   -2666.5816    430.26015    12176.607 
   99900    288.78056    238.03847   -3101.2823   -2671.7431    703.67764    12177.332 
   99950    293.83116    238.20231   -3106.7437   -2669.6921    469.03167    12178.243 
  100000    294.03386    238.22494   -3107.4981   -2670.1451    355.37999    12179.237 
Loop time of 26.7301 on 1 procs for 100000 steps with 500 atoms

Performance: 323.232 ns/day, 0.074 hours/ns, 3741.107 timesteps/s
99.8% CPU use with 1 MPI tasks x 1 OpenMP threads

MPI task timing breakdown:
Section |  min time  |  avg time  |  max time  |%varavg| %total
---------------------------------------------------------------
Pair    | 21.752     | 21.752     | 21.752     |   0.0 | 81.38
Bond    | 0.0080209  | 0.0080209  | 0.0080209  |   0.0 |  0.03
Neigh   | 0.56187    | 0.56187    | 0.56187    |   0.0 |  2.10
Comm    | 0.76602    | 0.76602    | 0.76602    |   0.0 |  2.87
Output  | 0.0185     | 0.0185     | 0.0185     |   0.0 |  0.07
Modify  | 2.7404     | 2.7404     | 2.7404     |   0.0 | 10.25
Other   |            | 0.8832     |            |       |  3.30

Nlocal:    500 ave 500 max 500 min
Histogram: 1 0 0 0 0 0 0 0 0 0
Nghost:    1590 ave 1590 max 1590 min
Histogram: 1 0 0 0 0 0 0 0 0 0
Neighs:    14439 ave 14439 max 14439 min
Histogram: 1 0 0 0 0 0 0 0 0 0

Total # of neighbors = 14439
Ave neighs/atom = 28.878
Ave special neighs/atom = 0
Neighbor list builds = 660
Dangerous builds = 0

write_data      ${walker}/final_restart_file
write_data      14/final_restart_file

quit
