LAMMPS (19 May 2017)
Processor partition = 0
  using 1 OpenMP thread(s) per MPI task
# gREM variables
variable        lambda world 1000 1005 1010 1015 1020 1025 1030 1035 1040 1045 1050 1055 1060 1065 1070 1075
variable        walker world 0 1 2 3 4 5 6 7 8 9 10 11 12 13 14 15
variable        replica world 1 0 3 9 12 2 5 13 10 4 7 14 6 15 8 11

variable        T0 equal 300.0
variable        press equal 0.0

units           real
atom_style      full
pair_style      lj/cut 5.0

# LJ particles
read_data       ${walker}/restart_file
read_data       0/restart_file
  orthogonal box = (1.07076 1.07076 1.07076) to (23.9292 23.9292 23.9292)
  1 by 1 by 1 MPI processor grid
  reading atoms ...
  500 atoms
  reading velocities ...
  500 velocities
  0 = max # of 1-2 neighbors
  0 = max # of 1-3 neighbors
  0 = max # of 1-4 neighbors
  1 = max # of special neighbors

#dump            dump all xyz 1000 ${walker}/dump.xyz

fix             fxnpt all npt temp ${T0} ${T0} 1000.0 iso ${press} ${press} 10000.0
fix             fxnpt all npt temp 300 ${T0} 1000.0 iso ${press} ${press} 10000.0
fix             fxnpt all npt temp 300 300 1000.0 iso ${press} ${press} 10000.0
fix             fxnpt all npt temp 300 300 1000.0 iso 0 ${press} 10000.0
fix             fxnpt all npt temp 300 300 1000.0 iso 0 0 10000.0
fix             fxgREM all grem ${lambda} -.03 -30000 fxnpt
fix             fxgREM all grem 1000 -.03 -30000 fxnpt
thermo_modify   press fxgREM_press

thermo          50
thermo_style    custom step temp f_fxgREM pe etotal press vol
WARNING: New thermo_style command, previous thermo_modify settings will be lost (../output.cpp:705)
timestep        1.0

temper/grem     100000 1000 ${lambda} fxgREM fxnpt 10294 98392 ${walker}
temper/grem     100000 1000 1000 fxgREM fxnpt 10294 98392 ${walker}
temper/grem     100000 1000 1000 fxgREM fxnpt 10294 98392 0
Neighbor list info ...
  update every 1 steps, delay 10 steps, check yes
  max neighbors/atom: 2000, page size: 100000
  master list distance cutoff = 7
  ghost atom cutoff = 7
  binsize = 3.5, bins = 7 7 7
  1 neighbor lists, perpetual/occasional/extra = 1 0 0
  (1) pair lj/cut, perpetual
      attributes: half, newton on
      pair build: half/bin/newton
      stencil: half/bin/3d/newton
      bin: standard
Per MPI rank memory allocation (min/avg/max) = 5.722 | 5.722 | 5.722 Mbytes
Step Temp f_fxgREM PotEng TotEng Press Volume 
       0    297.05826    195.31397   -3177.1322   -2735.2805    849.45943    11943.782 
      50    313.49474    195.81979    -3193.993   -2727.6934    468.42521     11943.83 
     100    318.69883    195.85442   -3195.1473    -2721.107    378.90211    11943.842 
     150    327.48571    196.08769   -3202.9228   -2715.8127    180.95679     11943.71 
     200    330.19823    196.25122   -3208.3739    -2717.229    143.29778    11943.331 
     250    305.00927    195.57781    -3185.927   -2732.2488    770.39741    11942.738 
     300    306.86419    195.55872   -3185.2906   -2728.8534    711.35012    11942.201 
     350    313.71541    195.77383   -3192.4609    -2725.833    531.69994    11941.712 
     400    299.06252    195.38061   -3179.3536   -2734.5207    912.19177    11941.207 
     450      302.893    195.52092   -3184.0306   -2733.5002     704.6574    11940.841 
     500    312.60186    195.82222   -3194.0741   -2729.1026    368.08272    11940.522 
     550    313.66672    195.96522   -3198.8406   -2732.2851     357.5702    11940.082 
     600    309.10014    195.79642    -3193.214   -2733.4509    445.67388    11939.524 
     650    319.44751    196.17551   -3205.8502   -2730.6962    150.43468    11938.855 
     700    313.89179       196.07   -3202.3333    -2735.443    229.74347    11937.974 
     750    324.44802    196.36418   -3212.1392   -2729.5474   -25.001157    11936.854 
     800     297.1812    195.65976   -3188.6586   -2746.6241    635.14367    11935.454 
     850     296.2979    195.64853   -3188.2844   -2747.5637    645.16412    11934.035 
     900    308.12291    195.92095   -3197.3652   -2739.0557     410.4487    11932.643 
     950    314.05809      196.136   -3204.5332   -2737.3956    248.03144    11931.156 
    1000    316.08457    196.27939    -3209.313   -2739.1612    113.12636    11929.466 
    1050    309.92197    201.22974   -3207.6582   -2746.6727    243.40199    11927.537 
    1100    301.99722    200.89851   -3196.6169   -2747.4189    439.30478    11925.447 
    1150    310.13108    201.22116   -3207.3719   -2746.0754    143.43465     11923.27 
    1200     297.9397    200.91724   -3197.2415   -2754.0788    397.34704     11920.91 
    1250    309.87443    201.37292   -3212.4305   -2751.5158    85.053893    11918.412 
    1300    293.96503     200.9161   -3197.2034   -2759.9526     520.5067     11915.72 
    1350    293.84672    200.97467   -3199.1557   -2762.0809    507.39652    11912.985 
    1400    309.37906    201.48923   -3216.3075   -2756.1296    27.790497    11910.209 
    1450     302.0154    201.26338   -3208.7794   -2759.5544    329.32361    11907.186 
    1500    285.33274    200.84101   -3194.7005   -2770.2897    834.22478    11904.055 
    1550    302.35038    201.36025   -3212.0082   -2762.2849     377.6801    11901.017 
    1600     297.7513    201.33797   -3211.2657   -2768.3832    440.64813    11897.912 
    1650    304.75906    201.48723   -3216.2409   -2762.9349    337.61203     11894.74 
    1700    296.94241    201.30187   -3210.0622   -2768.3829    547.02014    11891.466 
    1750    302.28596    201.51224   -3217.0746   -2767.4471     450.1632     11888.14 
    1800    299.79108    201.41438   -3213.8125    -2767.896    477.35262    11884.787 
    1850    316.64029    201.97159   -3232.3863   -2761.4078   -4.1515977    11881.359 
    1900    293.12841     201.2904   -3209.6801   -2773.6738     650.6495     11877.69 
    1950    295.56803    201.33597   -3211.1991    -2771.564    644.57313    11874.028 
    2000    298.91975    201.48691   -3216.2304   -2771.6099    579.35924    11870.403 
    2050    296.05801     196.4781   -3215.9368   -2775.5729     647.0564      11866.8 
    2100    300.96935    196.60185   -3220.0616   -2772.3925    588.70744    11863.221 
    2150    291.92048    196.25599    -3208.533   -2774.3234    892.74041    11859.666 
    2200    313.43132    196.92495   -3230.8315   -2764.6262    334.84835    11856.227 
    2250    303.07888     196.5726   -3219.0867   -2768.2799    663.86601    11852.697 
    2300    279.81842    195.91711   -3197.2369   -2781.0282    1301.5064    11849.217 
    2350    302.20361    196.62326   -3220.7754   -2771.2704    799.47152    11846.038 
    2400    301.58867     196.6737   -3222.4566   -2773.8663    764.47211    11843.001 
    2450    304.29297    196.77794   -3225.9314   -2773.3186    712.41682    11840.048 
    2500    313.48194    196.99796   -3233.2655   -2766.9849    551.49494    11837.146 
    2550    301.28688     196.6757   -3222.5234    -2774.382    861.16486    11834.244 
    2600    300.81132    196.68419   -3222.8064   -2775.3723    888.43567    11831.465 
    2650    299.62839    196.59699   -3219.8995    -2774.225    1042.0969    11828.849 
    2700    289.47427    196.23467   -3207.8223   -2777.2512    1398.4348    11826.486 
    2750     303.0419    196.67089   -3222.3629    -2771.611     985.6415    11824.505 
    2800    309.25194    196.94848   -3231.6161   -2771.6273    756.69197    11822.731 
    2850    293.42681    196.50265    -3216.755   -2780.3049    1157.4889     11821.07 
    2900    305.16305    196.79562   -3226.5207   -2772.6138    927.04193     11819.66 
    2950    292.80389    196.38015   -3212.6718   -2777.1482    1331.0266    11818.464 
    3000    293.28045    196.46926   -3215.6419   -2779.4095    1357.3957    11817.626 
    3050    299.18134     196.6804   -3222.6799   -2777.6704    1110.3096    11817.181 
    3100    307.96007    196.88163   -3229.3876   -2771.3204    841.88407    11816.997 
    3150    301.68612    196.70611   -3223.5369   -2774.8017    887.39101    11816.953 
    3200    313.12878     197.0937   -3236.4566   -2770.7013    554.67925     11817.02 
    3250    299.06767    196.70418   -3223.4728   -2778.6323    916.81919    11817.092 
    3300    292.24732    196.45954   -3215.3182   -2780.6224    1152.8829    11817.329 
    3350    292.69932    196.50943   -3216.9811   -2781.6131     1130.365    11817.854 
    3400    306.69013    196.88775   -3229.5916   -2773.4132     826.2918    11818.641 
    3450    289.56375    196.35241    -3211.747   -2781.0428    1301.0988      11819.6 
    3500    308.53165    196.96672   -3232.2239   -2773.3065    758.82227    11820.866 
    3550    298.66605    196.71806   -3223.9353   -2779.6922    978.27028    11822.279 
    3600    304.56904    196.88008   -3229.3361   -2776.3127    836.87764    11823.862 
    3650    298.21887    196.70741   -3223.5805   -2780.0025    925.94211      11825.6 
    3700    296.32527     196.6101   -3220.3367   -2779.5754     932.7439    11827.498 
    3750     301.6902    196.71291   -3223.7636   -2775.0223    777.32348    11829.566 
    3800    294.80494    196.44589   -3214.8629   -2776.3629    992.04657    11831.747 
    3850    297.18797    196.56394    -3218.798   -2776.7534    924.95023    11834.122 
    3900    305.42243    196.85277   -3228.4256   -2774.1329    724.01019    11836.674 
    3950    306.61871    196.94825   -3231.6083   -2775.5362    615.14595    11839.297 
    4000    300.10754    196.80712   -3226.9042   -2780.5169    707.71621     11841.96 
    4050    295.45988    196.58656   -3219.5522    -2780.078    856.34048      11844.7 
    4100    290.81054    196.45267   -3215.0889   -2782.5303    921.55972    11847.585 
    4150    300.40398    196.74208    -3224.736   -2777.9078    681.52286    11850.627 
    4200    282.80414    196.21666   -3207.2218   -2786.5721    1054.6892    11853.759 
    4250    295.08284    196.64572   -3221.5241   -2782.6107    563.53584    11857.098 
    4300    302.81443    196.84593   -3228.1975    -2777.784    226.07095    11860.463 
    4350    302.67529    196.84368   -3228.1227   -2777.9161    295.56382    11863.655 
    4400     288.6336    196.44338   -3214.7795   -2785.4589    652.43038    11866.725 
    4450    289.19507    196.46099   -3215.3665   -2785.2107    488.42341    11869.815 
    4500    297.14738    196.63415   -3221.1382    -2779.154    266.54476    11872.864 
    4550    309.63114    196.98256    -3232.752   -2772.1991   -86.104295    11875.771 
    4600    313.86752    197.07872   -3235.9573   -2769.1031   -199.47279    11878.333 
    4650    288.87557     196.3493   -3211.6434   -2781.9629    400.71429    11880.525 
    4700    286.27477    196.26611   -3208.8704   -2783.0583    464.17208    11882.616 
    4750    294.76433     196.4659   -3215.5302   -2777.0906    305.21379    11884.631 
    4800    294.91467    196.53548   -3217.8494   -2779.1862    225.35825    11886.515 
    4850    306.59271    196.85843   -3228.6145   -2772.5811   -124.79434    11888.206 
    4900    287.69197    196.37415   -3212.4716   -2784.5516    274.67442    11889.561 
    4950    284.53776    196.28618   -3209.5392   -2786.3108    316.11642    11890.746 
    5000    291.14398    196.51987   -3217.3292   -2784.2746    147.55047    11891.799 
    5050    303.98944    196.86739   -3228.9129   -2776.7517   -146.28853    11892.627 
    5100    308.80043    196.98718   -3232.9061   -2773.5888   -262.22222    11893.096 
    5150    298.35776    196.67691   -3222.5638   -2778.7793    34.825933    11893.123 
    5200    287.97942    196.37234   -3212.4113   -2784.0637    294.26464    11892.872 
    5250    296.59486    196.53725   -3217.9084   -2776.7461    118.63773     11892.47 
    5300    303.82039     196.7864   -3226.2132   -2774.3034    17.376432    11891.819 
    5350    300.25299    196.57689   -3219.2298   -2772.6262    239.22304    11890.891 
    5400    306.08926      196.744      -3224.8   -2769.5155    89.366652    11889.761 
    5450    291.22498    196.16729   -3205.5763   -2772.4012    501.43589    11888.402 
    5500    281.91524    196.03184   -3201.0613   -2781.7338    764.11415    11886.991 
    5550    307.03917    196.69646   -3223.2152   -2766.5177    166.92831    11885.634 
    5600     301.0567    196.52539   -3217.5131   -2769.7141    322.83119    11884.103 
    5650    305.67952    196.81406   -3227.1352   -2772.4601    104.23274    11882.394 
    5700    293.04197    196.35622   -3211.8739   -2775.9962    559.74312    11880.476 
    5750    285.62492    196.11711   -3203.9037   -2779.0583    879.29111    11878.533 
    5800    298.20633    196.38737   -3212.9123    -2769.353    581.52567    11876.728 
    5850     301.5042    196.41524   -3213.8413   -2765.3767    569.96963    11874.927 
    5900    302.34751    196.41411   -3213.8038   -2764.0848    716.55137      11873.1 
    5950    313.74726    196.72449   -3224.1497   -2757.4745    453.26252    11871.317 
    6000    304.01118    196.36165   -3212.0549   -2759.8613    736.11856    11869.483 
    6050    311.14825    196.52459   -3217.4864   -2754.6769    610.03762    11867.673 
    6100    310.93705    196.61119   -3220.3731   -2757.8778     556.0434    11865.879 
    6150    305.56786    196.39452   -3213.1506   -2758.6416     845.2459    11864.059 
    6200    311.61973    196.52838   -3217.6126   -2754.1019    751.29197    11862.342 
    6250    306.90847    196.44682   -3214.8942   -2758.3911    768.90764    11860.712 
    6300    313.20419    196.58608   -3219.5361   -2753.6686    703.79758    11859.137 
    6350    311.42166    196.49019   -3216.3398   -2753.1236    835.09115    11857.624 
    6400    314.25383    196.53893   -3217.9642   -2750.5354    793.08607    11856.208 
    6450    302.19943    196.17466   -3205.8219   -2756.3231    1144.1337    11854.906 
    6500    306.86337    196.23637   -3207.8791    -2751.443     1090.519    11853.852 
    6550    311.12062    196.38562   -3212.8539   -2750.0855    993.66843    11853.049 
    6600     310.3438    196.34567   -3211.5224   -2749.9095    1074.6916    11852.444 
    6650    320.37513    196.60765    -3220.255   -2743.7213    798.64133    11852.056 
    6700    319.36634    196.63592   -3221.1972    -2746.164    834.59775    11851.781 
    6750    315.49219    196.41019   -3213.6729   -2744.4022     1048.932    11851.613 
    6800    311.77477    196.29407   -3209.8023    -2746.061    1104.0306    11851.659 
    6850    321.67632    196.57433   -3219.1443   -2740.6751    781.88242    11851.914 
    6900    314.79955    196.33539   -3211.1796   -2742.9391    959.41939    11852.283 
    6950    322.93445    196.50199    -3216.733   -2736.3924    808.32473    11852.806 
    7000    322.13667    196.46635   -3215.5449    -2736.391    939.65234    11853.429 
    7050    293.12504    200.58944   -3186.3145   -2750.3132    1794.3511    11854.276 
    7100    298.94524    200.81306   -3193.7686   -2749.1102     1559.988    11855.699 
    7150    304.58472    200.93284   -3197.7614   -2744.7147    1329.4641    11857.643 
    7200    304.10832    200.96532   -3198.8441    -2746.506    1273.7297    11859.984 
    7250    291.47698    200.56046   -3185.3488   -2751.7988    1639.8669    11862.719 
    7300    304.18789    200.94357    -3198.119   -2745.6626    1354.1734    11865.983 
    7350    315.10222      201.258   -3208.6001   -2739.9094    1034.0817    11869.667 
    7400    310.57123    201.23472    -3207.824   -2745.8729    1020.9246    11873.602 
    7450    299.73977    200.94226   -3198.0754   -2752.2352    1199.4075    11877.795 
    7500    306.99021    201.20261   -3206.7538   -2750.1291    906.06542    11882.325 
    7550    316.97988    201.41566   -3213.8554   -2742.3718    551.84803    11887.042 
    7600    317.39737    201.49905   -3216.6349   -2744.5304    439.48152    11891.749 
    7650    301.23027    200.97108    -3199.036   -2750.9788    841.30985    11896.419 
    7700    300.21661    200.91342   -3197.1141   -2750.5647    802.88509    11901.227 
    7750    294.44691    200.79284   -3193.0947   -2755.1273    758.13342    11906.199 
    7800    300.78937    200.97511   -3199.1702   -2751.7688    568.87064    11911.274 
    7850    303.61886    201.11998   -3203.9993   -2752.3893    417.79609     11916.38 
    7900    308.67717    201.29764   -3209.9215   -2750.7876    183.32837    11921.426 
    7950    296.10681     200.9182   -3197.2732   -2756.8368    453.65452    11926.329 
    8000    296.10622    200.97049   -3199.0165   -2758.5809    366.76138    11931.182 
    8050    312.89822    196.42279    -3214.093   -2748.6806    -164.6439    11935.905 
    8100    298.88203     196.0052   -3200.1733   -2755.6089    88.553596    11940.301 
    8150    293.07971    195.81708   -3193.9027   -2757.9688    273.39015    11944.443 
    8200    301.55059     196.1087   -3203.6234   -2755.0897    2.5683528    11948.399 
    8250    296.77929    196.01166   -3200.3887    -2758.952   -16.526795    11952.088 
    8300    296.65148    195.97586   -3199.1953   -2757.9488   -26.211395    11955.466 
    8350    293.79876    195.89304   -3196.4347   -2759.4313    47.725443    11958.537 
    8400    297.92033    196.01829   -3200.6098   -2757.4758     -117.927    11961.325 
    8450    292.62475    195.98811   -3199.6038   -2764.3467   -81.467875    11963.773 
    8500    301.40507    196.32194   -3210.7313   -2762.4141   -375.76912     11965.86 
    8550    286.32705    195.89786   -3196.5952   -2770.7054   -72.608877    11967.484 
    8600    293.13707    196.17815   -3205.9383   -2769.9191   -303.60526    11968.738 
    8650     291.2873    196.21463   -3207.1544   -2773.8866   -352.40887    11969.553 
    8700    298.82722    196.49764   -3216.5882   -2772.1053   -657.22942    11969.869 
    8750     298.9987    196.43713   -3214.5711   -2769.8332   -676.87034    11969.562 
    8800    294.59469    196.30282    -3210.094   -2771.9067   -542.84375    11968.587 
    8850    295.26218    196.31685   -3210.5616   -2771.3815   -565.41349    11967.008 
    8900    294.42958    196.32696   -3210.8988   -2772.9571   -557.44252    11964.828 
    8950    293.15951    196.39989   -3213.3296    -2777.277   -444.62402    11962.035 
    9000    280.62825     195.9876   -3199.5866   -2782.1734   -30.344577    11958.724 
    9050    293.54714    196.46307   -3215.4356   -2778.8065   -472.71216    11955.043 
    9100    298.62973    196.66002   -3222.0005   -2777.8114   -622.19269    11950.815 
    9150    285.04927    196.35398   -3211.7993   -2787.8101   -188.06505    11945.977 
    9200    280.26587    196.11637   -3203.8791   -2787.0049    40.559369    11940.725 
    9250    296.59708    196.62866   -3220.9552   -2779.7895   -365.02728    11935.147 
    9300    284.54558    196.31521    -3210.507    -2787.267   -60.093949    11929.107 
    9350    276.08336    196.17445   -3205.8151    -2795.162    175.07604    11922.707 
    9400    274.49294    196.17494   -3205.8313   -2797.5439    303.06685    11916.094 
    9450      284.289    196.45021   -3215.0071   -2792.1488    90.488764    11909.316 
    9500    291.50972    196.71674   -3223.8913   -2790.2927   -100.77213    11902.269 
    9550    292.77693    196.74564   -3224.8547   -2789.3712   -115.16824    11894.858 
    9600    292.46708    196.75138   -3225.0461   -2790.0235   -5.6388665     11887.06 
    9650    297.79525    196.83868   -3227.9559    -2785.008    29.350493    11878.914 
    9700    279.57032    196.38446   -3212.8154   -2796.9757    583.72374    11870.494 
    9750    286.51253    196.55645   -3218.5485   -2792.3828    481.96247    11862.021 
    9800     297.6306    196.93778   -3231.2592   -2788.5562    238.54847    11853.464 
    9850    293.13844    196.80556   -3226.8518   -2790.8306    515.23667    11844.741 
    9900    298.46705    197.04805   -3234.9349   -2790.9878    472.83597     11835.92 
    9950    291.33924    196.85653    -3228.551    -2795.206    674.71562    11827.041 
   10000    297.09228    196.95947   -3231.9825   -2790.0802    658.84477    11818.173 
   10050    292.86564    196.83567   -3227.8555   -2792.2401    904.76931    11809.332 
   10100    304.05124    197.24625   -3241.5417   -2789.2885    667.08597    11800.605 
   10150     295.0339    196.97087   -3232.3623   -2793.5218    959.21719    11791.905 
   10200     282.3666    196.65793   -3221.9311   -2801.9322    1375.9691    11783.359 
   10250    281.88905    196.63863   -3221.2878   -2801.9992    1534.9201    11775.208 
   10300    296.96244    197.00209   -3233.4029   -2791.6937    1359.3979    11767.525 
   10350    304.57779    197.33711   -3244.5703    -2791.534      1253.47    11760.216 
   10400    305.56647    197.39587   -3246.5289   -2792.0219    1292.2631    11753.223 
   10450    289.95915    196.81776   -3227.2586   -2795.9663    1795.6161    11746.595 
   10500    304.42819    197.26277   -3242.0924   -2789.2785    1519.9456    11740.496 
   10550    299.58317    197.18517   -3239.5057   -2793.8985    1663.9406    11734.886 
   10600    311.87299    197.52858   -3250.9527   -2787.0653    1347.1647    11729.767 
   10650    300.54149     197.2594   -3241.9801   -2794.9474    1698.1064    11725.032 
   10700    287.66261    196.82251    -3227.417   -2799.5407    2149.4815    11720.853 
   10750    288.46959    196.94318   -3231.4393   -2802.3626    2161.3799    11717.447 
   10800    297.93911    197.15115   -3238.3716   -2795.2097    1867.6557    11714.824 
   10850    311.34064    197.50716   -3250.2386    -2787.143    1491.6688    11712.814 
   10900    302.35055    197.27411   -3242.4703   -2792.7467    1774.4408    11711.276 
   10950     302.0706    197.33326    -3244.442   -2795.1348    1809.0019    11710.312 
   11000    304.38253    197.46933   -3248.9776   -2796.2317    1690.6307    11709.946 
   11050    294.88883    197.16474   -3238.8245   -2800.1997    1894.7736    11710.162 
   11100    299.33093    197.20224   -3240.0748   -2794.8427    1869.0361     11711.01 
   11150    308.60609      197.473   -3249.1001   -2790.0719    1560.7608    11712.482 
   11200    308.17113    197.43232   -3247.7439   -2789.3627    1568.1388    11714.451 
   11250    295.45153    197.02908   -3234.3026   -2794.8408    1920.1854    11716.933 
   11300    307.10382    197.38862   -3246.2874   -2789.4937    1507.3952    11720.045 
   11350    304.55563      197.305      -3243.5   -2790.4966    1516.9617     11723.65 
   11400    307.28671    197.42899    -3247.633   -2790.5673    1430.0156     11727.73 
   11450    305.44286    197.40419   -3246.8063   -2792.4832    1448.6688     11732.25 
   11500    300.26086    197.21595   -3240.5318   -2793.9166    1616.5066    11737.224 
   11550    291.13681    197.06331   -3235.4438   -2802.3998    1797.0104     11742.74 
   11600    287.39104    196.94159   -3231.3863   -2803.9139    1707.5903    11748.898 
   11650    292.03653    197.04813   -3234.9377   -2800.5555    1413.3114    11755.654 
   11700    298.92159    197.25082   -3241.6938   -2797.0706    1175.4976    11762.865 
   11750     301.7622    197.30707   -3243.5692   -2794.7208    970.62969    11770.411 
   11800    300.96928    197.29624    -3243.208    -2795.539     850.5278    11778.185 
   11850      287.074     196.9958   -3233.1935   -2806.1927    1005.4021    11786.151 
   11900      300.898    197.28208   -3242.7361   -2795.1731    587.25444    11794.333 
   11950    296.86965     197.2176   -3240.5866   -2799.0155    593.49636    11802.583 
   12000    288.36254    196.95486   -3231.8285   -2802.9111    748.24664    11810.892 
   12050    286.12396    196.79188    -3226.396   -2800.8083    773.26323    11819.335 
   12100    299.72412     197.1935   -3239.7832   -2793.9663     383.6804     11827.91 
   12150    301.27792    197.14186   -3238.0619   -2789.9339    287.35579    11836.454 
   12200    297.91019    197.08422   -3236.1406   -2793.0218    277.66044    11844.876 
   12250    286.15911    196.76565   -3225.5218   -2799.8818    452.50571    11853.204 
   12300     292.9739    196.92545   -3230.8484    -2795.072    138.98244    11861.472 
   12350    285.17683    196.69185   -3223.0617   -2798.8828    206.72184    11869.581 
   12400    283.49436    196.64268   -3221.4228   -2799.7464    200.75646    11877.541 
   12450     282.3616    196.63938   -3221.3127   -2801.3212    109.80205    11885.351 
   12500     299.1703    197.09024   -3236.3414   -2791.3483   -438.86682    11892.948 
   12550    284.42943    196.71804   -3223.9348   -2800.8676   -220.39527    11900.095 
   12600    289.29751    196.84422   -3228.1406   -2797.8325   -405.11796    11906.831 
   12650     281.7094    196.65476   -3221.8253   -2802.8039   -221.52461    11913.115 
   12700    278.32375    196.58703   -3219.5676   -2805.5822    -178.7008    11919.024 
   12750    290.39184    196.80131   -3226.7104   -2794.7746   -483.20277    11924.578 
   12800    287.25862    196.58819   -3219.6063   -2792.3309   -331.64166    11929.625 
   12850    273.87447    196.13404    -3204.468   -2797.1005   -34.621845    11934.234 
   12900    287.37163     196.5322     -3217.74   -2790.2965   -475.88131    11938.495 
   12950    287.76955    196.48968   -3216.3225   -2788.2871   -489.99267    11942.266 
   13000    299.94208    196.80407   -3226.8024   -2780.6612   -698.94413    11945.489 
   13050    286.17002    196.29261   -3209.7535   -2784.0973   -226.93126    11948.086 
   13100    283.68092    196.22156   -3207.3852   -2785.4313   -170.61002    11950.255 
   13150    278.31933    196.09962   -3203.3206   -2789.3417   -143.10312     11952.06 
   13200    286.27511    196.28138   -3209.3793   -2783.5668   -327.61288    11953.482 
   13250    281.80794    196.16535   -3205.5117   -2786.3438   -257.29086    11954.473 
   13300    294.27581    196.51381    -3217.127    -2779.414   -535.53802    11955.012 
   13350    295.64833    196.47414   -3215.8046   -2776.0501   -489.55379     11954.99 
   13400    293.81594    196.30202   -3210.0675   -2773.0385   -374.04195    11954.409 
   13450    296.15194    196.28799   -3209.5997   -2769.0961   -302.75158    11953.326 
   13500    297.11358    196.27777   -3209.2591   -2767.3252   -295.56597    11951.779 
   13550      291.815    196.12183    -3204.061   -2770.0083   -171.86362    11949.766 
   13600     289.9586    196.02478   -3200.8262   -2769.5347   -98.125166    11947.355 
   13650    302.63691    196.43451   -3214.4837   -2764.3342   -418.18627    11944.567 
   13700    300.40375    196.28451   -3209.4838    -2762.656   -239.23802    11941.257 
   13750    291.43155    195.99602   -3199.8672   -2766.3849    54.539366    11937.506 
   13800    304.35443    196.30359   -3210.1197   -2757.4156   -179.24615    11933.438 
   13850    299.20162    196.20778   -3206.9259   -2761.8861    39.694144    11928.972 
   13900     301.0815    196.12603   -3204.2012   -2756.3652    137.87547    11924.178 
   13950    293.36341    195.95559   -3198.5196   -2762.1637    355.27226    11919.137 
   14000    299.45712    196.11344   -3203.7814   -2758.3616    307.82074    11913.953 
   14050    299.69447     196.0578   -3201.9265   -2756.1537    527.85065    11908.614 
   14100    312.26804    196.41894   -3213.9647   -2749.4897    343.59968    11903.176 
   14150     300.6737    196.14004   -3204.6679   -2757.4386    649.64872    11897.605 
   14200    311.67765    196.47538   -3215.8459    -2752.249    413.49802    11891.996 
   14250    306.15188     196.2432   -3208.1068   -2752.7291    562.27215    11886.306 
   14300    309.78287    196.33201   -3211.0671   -2750.2886    591.15519    11880.534 
   14350    303.04825    196.21043   -3207.0144   -2756.2531    817.48063    11874.744 
   14400    315.49743    196.49618   -3216.5393   -2747.2608     627.7357    11869.033 
   14450     314.0141    196.44014   -3214.6712   -2747.5991    740.66794    11863.329 
   14500     321.6892    196.65489   -3221.8298   -2743.3415    604.42231    11857.629 
   14550    307.85312     196.3105     -3210.35   -2752.4418    1065.6298    11851.936 
   14600    309.90537    196.25003   -3208.3343   -2747.3735    1160.6217    11846.439 
   14650    301.87484    196.02273   -3200.7575   -2751.7416    1375.1606      11841.2 
   14700    323.13108    196.63997   -3221.3324   -2740.6994    880.10593    11836.284 
   14750    319.10153    196.55364   -3218.4548   -2743.8154    1148.1423    11831.525 
   14800    305.51454     196.2493   -3208.3099   -2753.8802    1534.0585    11827.005 
   14850     310.8077    196.38313    -3212.771   -2750.4681    1385.6308    11822.913 
   14900    325.64122    196.76308   -3225.4361   -2741.0695    1062.3924    11819.188 
   14950     319.0633    196.52907   -3217.6355    -2743.053    1350.6519    11815.687 
   15000    310.64181    196.42879    -3214.293   -2752.2369    1584.9096    11812.523 
   15050     295.8618    201.08161   -3202.7204   -2762.6484    1976.1524    11809.878 
   15100    316.58527    201.74744   -3224.9146    -2754.018    1419.6156    11807.879 
   15150     319.0674    201.73223   -3224.4077   -2749.8192    1341.4724    11806.319 
   15200    307.20751    201.40786   -3213.5954   -2756.6476    1637.1281     11805.15 
   15250     301.2244    201.28462   -3209.4874   -2761.4389    1729.3313    11804.497 
   15300     305.3283    201.44429   -3214.8095   -2760.6568    1579.7183    11804.417 
   15350    288.18655    200.83826   -3194.6086    -2765.953    2010.7673    11804.909 
   15400     306.7871    201.37601   -3212.5336    -2756.211     1448.734    11806.085 
   15450    309.60131    201.51058   -3217.0194   -2756.5109    1263.9465    11807.731 
   15500    315.95628     201.7809   -3226.0299   -2756.0689    1131.6423    11809.729 
   15550    309.44881    201.62104   -3220.7012   -2760.4195    1310.4841    11812.033 
   15600    305.04252    201.46241   -3215.4138   -2761.6861    1331.5634    11814.711 
   15650    299.05078    201.29235   -3209.7452   -2764.9298    1397.7283    11817.818 
   15700    287.86529    200.95882   -3198.6272   -2770.4494    1753.5897    11821.394 
   15750    305.52892    201.59065   -3219.6883   -2765.2371    1161.9983    11825.556 
   15800     308.9312    201.73766   -3224.5886   -2765.0769    911.21564    11830.069 
   15850    301.85769    201.58677   -3219.5591   -2770.5686    980.45387    11834.807 
   15900    300.96921    201.49958   -3216.6527   -2768.9838    943.87011    11839.792 
   15950    302.28703    201.53337   -3217.7791     -2768.15    798.24782    11845.001 
   16000    309.45248    201.83411   -3227.8038   -2767.5167     526.7743    11850.356 
   16050    288.94708    201.27376   -3209.1255   -2779.3386    983.10299    11855.771 
   16100    293.69571    201.33859   -3211.2864   -2774.4363    880.73268    11861.412 
   16150    281.14521    201.01791    -3200.597   -2782.4148    1084.9387    11867.312 
   16200    294.46443    201.42906   -3214.3019   -2776.3084    555.96172    11873.509 
   16250    303.52248    201.75138   -3225.0461   -2773.5794    147.72706    11879.757 
   16300    286.78564    201.28408   -3209.4693   -2782.8974     478.7306    11885.882 
   16350    281.66853    201.04884   -3201.6279   -2782.6673    622.52419    11892.004 
   16400    293.92607    201.46098   -3215.3659   -2778.1732     193.6536      11898.2 
   16450    291.35712    201.40009   -3213.3365   -2779.9649    130.40991    11904.283 
   16500    271.61014    200.89479    -3196.493   -2792.4935    560.28979    11910.232 
   16550    291.85519    201.42464   -3214.1547   -2780.0422     15.10895    11916.187 
   16600    296.00861    201.55793   -3218.5977   -2778.3073   -138.04565    11921.939 
   16650    309.25565    201.95168   -3231.7228   -2771.7284   -527.54544    11927.364 
   16700    290.61716    201.38552   -3212.8505   -2780.5795   -120.72149    11932.311 
   16750    284.99643    201.27262   -3209.0874   -2785.1769   -98.400356    11936.915 
   16800    285.60731     201.2848   -3209.4935   -2784.6743   -237.59624    11941.216 
   16850    275.68316    200.99922    -3199.974   -2789.9162   -42.154147    11945.166 
   16900    280.54653    201.08609   -3202.8698   -2785.5781   -194.71797    11948.824 
   16950     283.4955    201.25478   -3208.4927   -2786.8146    -393.3302     11952.14 
   17000    288.69961     201.4017     -3213.39   -2783.9712   -586.04461    11955.003 
   17050    287.00119    206.37052   -3212.3508   -2785.4583   -562.94317    11957.306 
   17100    278.38385    206.15731   -3205.2437   -2791.1688   -310.12503    11959.085 
   17150    278.96072    206.09694   -3203.2313   -2788.2984   -226.50609    11960.453 
   17200    273.79419    205.82593   -3194.1975   -2786.9494   -65.481919     11961.46 
   17250    283.65592    206.16136   -3205.3788   -2783.4621   -391.99411    11962.147 
   17300    285.39435    206.18508   -3206.1692   -2781.6668   -422.69571    11962.374 
   17350    284.16474    206.04027   -3201.3422   -2778.6687   -337.87812    11962.128 
   17400    280.62587    205.95147   -3198.3824   -2780.9727   -201.08598    11961.455 
   17450    284.14147    206.10278    -3203.426   -2780.7871   -200.75588    11960.394 
   17500    283.02868    206.04101   -3201.3669   -2780.3832   -91.968836    11958.958 
   17550    286.45099    206.06319   -3202.1063   -2776.0322    -146.7834    11957.201 
   17600    292.21687    206.18366   -3206.1221   -2771.4717   -242.25201    11955.091 
   17650    295.34476    206.25169   -3208.3895   -2769.0866   -239.27095    11952.569 
   17700    297.73178    206.29777   -3209.9256   -2767.0721   -250.88998    11949.622 
   17750    291.43327    205.98901   -3199.6338   -2766.1489    103.47362    11946.265 
   17800    280.70332    205.60249   -3186.7496   -2769.2247    480.57002    11942.667 
   17850    290.91064    205.90538   -3196.8462   -2764.1386    205.20601    11938.991 
   17900    295.82208    205.98376   -3199.4587   -2759.4458    113.44073    11935.139 
   17950    289.84396    205.80013   -3193.3377   -2762.2167    350.23452    11931.055 
   18000    298.88471    205.92283   -3197.4278   -2752.8594    241.45756    11926.817 
   18050    284.91367    210.49764   -3183.2545    -2759.467    743.25879    11922.443 
   18100    296.52866    210.82548   -3194.1827   -2753.1188     597.9177    11918.121 
   18150    303.02655    210.98381   -3199.4603   -2748.7313    481.54173    11913.813 
   18200    307.97265    211.09509   -3203.1698   -2745.0838    412.55946    11909.449 
   18250    300.49441    210.88995   -3196.3318   -2749.3691    702.71794     11905.01 
   18300    288.84793    210.41093   -3180.3643   -2750.7249    1216.1737    11900.643 
   18350     295.0257    210.51337   -3183.7789   -2744.9505    1183.8116    11896.584 
   18400    301.71875     210.6907   -3189.6901   -2740.9063    1015.5588     11892.83 
   18450    315.37192    211.17397    -3205.799   -2736.7071    735.07659    11889.286 
   18500    305.10646    210.89578   -3196.5259   -2742.7032    1118.5465    11885.869 
   18550    312.47227     211.0643   -3202.1434   -2737.3646    1040.9016    11882.701 
   18600    304.61334     210.7705   -3192.3502   -2739.2609    1356.3595    11879.791 
   18650    303.88406    210.78174   -3192.7246   -2740.7201    1359.1231    11877.265 
   18700    302.67355    210.69269   -3189.7563   -2739.5523    1457.0223    11875.158 
   18750    307.63235    210.86552   -3195.5173   -2737.9375    1339.9057    11873.505 
   18800    307.09458    210.85998   -3195.3326   -2738.5527    1393.1853    11872.268 
   18850    291.35783    210.40664   -3180.2212   -2746.8485    1844.2588    11871.515 
   18900    307.69385    210.76499   -3192.1664   -2734.4951    1516.3303    11871.392 
   18950    321.72901    211.18395   -3206.1315    -2727.584     1156.967    11871.755 
   19000    308.44753    210.87866   -3195.9553    -2737.163    1420.9619     11872.49 
   19050    295.99949    210.58987   -3186.3291   -2746.0522    1713.2824    11873.709 
   19100    303.80717    210.68327   -3189.4423   -2737.5521    1476.0578    11875.534 
   19150    295.75842    210.49727   -3183.2424   -2743.3242    1608.8256    11877.904 
   19200    306.70116    210.91829   -3197.2763   -2741.0816    1212.7033     11880.84 
   19250    314.53853    211.08102   -3202.7007   -2734.8485    911.14339    11884.182 
   19300    301.93703    210.61239   -3187.0795   -2737.9711     1263.997    11887.799 
   19350     298.3927    210.51976    -3183.992   -2740.1555    1371.2502    11891.814 
   19400    301.52202    210.70715   -3190.2382   -2741.7471    1118.4291    11896.315 
   19450    302.83401    210.73838   -3191.2794   -2740.8368    1006.0936    11901.206 
   19500    295.82155    210.43843   -3181.2811   -2741.2689    1166.8721    11906.432 
   19550    301.40171    210.70992   -3190.3306   -2742.0184    833.68987     11912.04 
   19600     296.1039    210.52571   -3184.1905   -2743.7584    891.45318     11917.91 
   19650    295.22961    210.56272   -3185.4239   -2746.2922    844.42611    11924.037 
   19700    300.54397    210.74536    -3191.512   -2744.4757    681.20375    11930.418 
   19750    303.83014    210.76159   -3192.0531   -2740.1288    614.49374    11936.982 
   19800    300.50655    210.60295   -3186.7649   -2739.7842    716.71479    11943.678 
   19850    292.28735    210.37839   -3179.2797   -2744.5244    820.50903    11950.564 
   19900    295.58301    210.51288   -3183.7626   -2744.1053     531.9822    11957.685 
   19950    301.96513    210.69925   -3189.9749   -2740.8247    226.26049    11964.902 
   20000    287.16308     210.1552     -3171.84   -2744.7067     624.0093    11972.098 
   20050     300.9239    210.54357   -3184.7856   -2737.1841    249.95724    11979.404 
   20100    308.56881    210.84185   -3194.7282   -2735.7555   -181.20146    11986.657 
   20150    301.84534    210.60015   -3186.6715   -2737.6995   -121.37686    11993.651 
   20200    283.15139    210.06352    -3168.784   -2747.6178    318.86024     12000.43 
   20250    292.41774    210.30158   -3176.7192     -2741.77    -3.977443    12007.139 
   20300    295.94943    210.36998   -3178.9994   -2738.7971   -157.23017    12013.684 
   20350    307.02612    210.70519   -3190.1729   -2733.4948   -481.26919     12019.94 
   20400    292.83137      210.289      -3176.3   -2740.7355   -228.10839    12025.785 
   20450    296.74206    210.41957   -3180.6523   -2739.2709   -432.56994    12031.264 
   20500    285.76101    210.04455   -3168.1518    -2743.104   -102.21249    12036.344 
   20550    279.92734    209.86068   -3162.0226   -2745.6519    50.735604    12041.178 
   20600    296.29383    210.25278   -3175.0926    -2734.378   -393.90934    12045.793 
   20650    294.11905      210.198   -3173.2666   -2735.7868    -318.9225    12050.008 
   20700    292.15431     210.0939   -3169.7966   -2735.2392   -257.62369    12053.835 
   20750    298.95434    210.33334    -3177.778   -2733.1061   -533.54104    12057.283 
   20800    292.93808    210.15952    -3171.984   -2736.2608   -349.30097    12060.243 
   20850    282.16283    209.78158   -3159.3859   -2739.6901   -50.984633    12062.798 
   20900    293.03594    210.21119   -3173.7063   -2737.8375   -475.05274     12065.06 
   20950    300.93098    210.41919   -3180.6398   -2733.0278   -786.11619    12066.847 
   21000    295.23044    210.24484   -3174.8278   -2735.6949   -619.43482    12067.998 
   21050    288.43734    210.01988   -3167.3294   -2738.3007   -272.59053    12068.567 
   21100    291.97274    210.07694   -3169.2314   -2734.9441   -230.57851    12068.711 
   21150    299.26104    210.26878   -3175.6262    -2730.498   -429.38197    12068.468 
   21200    301.52839    210.29458   -3176.4861   -2727.9855   -547.38837    12067.713 
   21250    291.00948      209.996   -3166.5332   -2733.6787   -280.06215    12066.411 
   21300    292.82195    210.05757   -3168.5855   -2733.0351   -292.92265    12064.659 
   21350    289.60297    209.96056    -3165.352   -2734.5895   -184.39629    12062.475 
   21400    304.59809     210.4226   -3180.7535   -2727.6869   -546.08728    12059.884 
   21450    304.28599    210.30283   -3176.7611   -2724.1587   -452.52608    12056.727 
   21500    289.76293    209.90506   -3163.5022   -2732.5017    19.844342    12053.046 
   21550     306.8133    210.29926   -3176.6419   -2720.2804   -296.79241    12049.015 
   21600    298.43614     210.0048   -3166.8267   -2722.9256   -4.4028548    12044.545 
   21650    309.74953    210.33384   -3177.7947   -2717.0657   -166.59592    12039.712 
   21700    313.14464    210.49845   -3183.2818   -2717.5029   -172.18493    12034.472 
   21750    297.47661    209.91911   -3163.9704   -2721.4965    313.47162     12028.84 
   21800    308.04921    210.15985   -3171.9949   -2713.7951    85.674812    12023.008 
   21850    312.31875    210.25178   -3175.0593   -2710.5089    106.14961    12016.898 
   21900    297.04302    209.75414   -3158.4713   -2716.6424    705.98471    12010.517 
   21950    294.12998    209.68187   -3156.0622   -2718.5662    890.81891    12004.151 
   22000    312.05922    210.23175   -3174.3916   -2710.2272    469.18301    11997.902 
   22050    312.32978    210.13266   -3171.0888   -2706.5219    495.49273     11991.58 
   22100    316.14523    210.23773   -3174.5911    -2704.349    428.88413    11985.144 
   22150    304.20434    209.91547   -3163.8489    -2711.368    800.26829    11978.618 
   22200    318.11953    210.36321   -3178.7735   -2705.5948    517.99663    11972.127 
   22250    317.10669    210.20819   -3173.6063   -2701.9342    697.63711    11965.596 
   22300    319.80184    210.22715   -3174.2383   -2698.5572    783.52065    11959.073 
   22350    312.97326    210.06118    -3168.706    -2703.182    1015.4477    11952.637 
   22400    310.61214    210.05695   -3168.5651   -2706.5531    1243.1247    11946.367 
   22450     286.1146    209.35853   -3145.2844   -2719.7106    2079.1984    11940.451 
   22500    314.49704    210.28543    -3176.181   -2708.3905    1332.5484    11935.211 
   22550    313.14235     210.1283   -3170.9435    -2705.168    1369.7621     11930.41 
   22600    315.11375    210.16828   -3172.2759   -2703.5681    1305.3231    11925.981 
   22650    325.05722     210.4614   -3182.0467   -2698.5487    1099.3549    11921.867 
   22700    303.64973      209.844   -3161.4667   -2709.8107     1737.598    11918.051 
   22750    314.47554    210.15183   -3171.7276    -2703.969    1520.1157    11914.797 
   22800    329.17647    210.61668   -3187.2226   -2697.5975    1170.2547    11912.011 
   22850    323.00592    210.46838   -3182.2794   -2701.8326    1314.4632    11909.544 
   22900    331.34632    210.71629   -3190.5431   -2697.6905    1081.0897    11907.428 
   22950    315.90125    210.22836   -3174.2787   -2704.3995    1592.7179    11905.612 
   23000     311.1267     210.0932   -3169.7732   -2706.9958    1763.9519    11904.315 
   23050     329.0087    210.61588   -3187.1962   -2697.8207    1344.8401    11903.608 
   23100    321.53934    210.38604   -3179.5347   -2701.2693    1577.6501    11903.359 
   23150    315.81134     210.2517   -3175.0567   -2705.3113    1827.0657    11903.635 
   23200    315.65918    210.22369   -3174.1232    -2704.604    1885.5258    11904.595 
   23250    311.04692    210.14834   -3171.6114   -2708.9527    1909.1086    11906.285 
   23300    309.10531    210.15928    -3171.976   -2712.2052    1804.4946    11908.695 
   23350    321.51551    210.69875   -3189.9583   -2711.7284    1256.0536    11911.776 
   23400    305.62064     210.2499   -3174.9966   -2720.4091    1579.7124    11915.326 
   23450    313.14807    210.47339   -3182.4462   -2716.6622    1413.6817    11919.437 
   23500    299.01862    210.12479   -3170.8262   -2726.0587     1679.455    11924.095 
   23550    296.09186    210.16122   -3172.0405   -2731.6263    1549.6645    11929.396 
   23600    310.62081    210.61783   -3187.2611   -2725.2362    912.43026    11935.283 
   23650    317.84874    210.86367   -3195.4558   -2722.6799    482.52094    11941.458 
   23700    316.97445    210.78714   -3192.9045    -2721.429     426.7454    11947.671 
   23750    296.75117    210.32306   -3177.4354   -2736.0405    802.53039    11953.928 
   23800    297.85666    210.42053   -3180.6843   -2737.6451    623.26627    11960.382 
   23850    292.37823    210.29134    -3176.378   -2741.4876    625.23861    11966.983 
   23900    295.02334    210.36362   -3178.7874   -2739.9625    386.06567    11973.719 
   23950    310.25502    210.85784   -3195.2612   -2733.7803   -114.16832    11980.445 
   24000    286.22588    210.22951    -3174.317   -2748.5777    425.56786    11986.962 
   24050    279.72679    215.08916   -3169.6388   -2753.5664    538.56187     11993.49 
   24100    288.15369    215.25407   -3175.1358    -2746.529    179.12764    12000.116 
   24150     300.0121    215.59136   -3186.3788   -2740.1335   -278.93249    12006.643 
   24200    278.15303     214.9678   -3165.5933   -2751.8618     202.5928    12012.896 
   24250    282.97546    215.17811   -3172.6037   -2751.6992    32.844603     12019.03 
   24300     292.5033     215.4401   -3181.3365     -2746.26    -349.9681    12025.005 
   24350     300.7639    215.74988   -3191.6625    -2744.299   -756.38951      12030.6 
   24400    287.55022    215.40954   -3180.3181   -2752.6089   -412.89273    12035.629 
   24450    275.36597    215.01828   -3167.2761   -2757.6901   -15.908681    12040.247 
   24500    276.55373    215.00052   -3166.6838   -2755.3311   -15.130284    12044.649 
   24550    278.04746    214.95751   -3165.2502   -2751.6757   -86.554206    12048.857 
   24600    285.90284    215.15436   -3171.8119   -2746.5531   -352.74929     12052.81 
   24650    289.60242    215.26375   -3175.4584   -2744.6968   -498.41733    12056.372 
   24700    292.50529    215.26759   -3175.5863   -2740.5068    -580.2063    12059.456 
   24750    282.03794    214.93793   -3164.5976   -2745.0876   -290.12978    12062.033 
   24800    290.72572    215.24326   -3174.7753   -2742.3428   -614.21723    12064.206 
   24850    288.87192    215.19785   -3173.2617   -2743.5866   -634.94335    12065.864 
   24900    286.65999    215.14062   -3171.3539   -2744.9689    -541.4761    12066.956 
   24950    280.30519    214.91394   -3163.7981   -2746.8654   -347.86863    12067.553 
   25000    293.08603    215.35657   -3178.5525   -2742.6092   -591.08765    12067.693 
   25050    275.33356    219.78844   -3159.6148    -2750.077   -38.249286    12067.322 
   25100     275.6008    219.69779   -3156.5929   -2746.6576   -12.339969    12066.674 
   25150    274.19113    219.76199    -3158.733   -2750.8945   -4.2731354    12065.804 
   25200     276.9534     219.8256   -3160.8533   -2748.9061   -74.727316     12064.71 
   25250    282.70798    219.99964   -3166.6547    -2746.148   -231.65965     12063.34 
   25300    292.41361    220.27331   -3175.7769   -2740.8338   -453.37907    12061.597 
   25350    289.88866    220.21635   -3173.8783   -2742.6909   -404.89627     12059.38 
   25400    289.52998    220.07669   -3169.2228   -2738.5689   -343.89206     12056.69 
   25450    290.36222    220.14492   -3171.4974   -2739.6056   -291.39749    12053.557 
   25500    279.08428    219.70221   -3156.7404   -2741.6237    193.74021    12050.035 
   25550     283.7136    219.75055   -3158.3516   -2736.3491     210.1044    12046.329 
   25600    290.43937     219.9286   -3164.2866     -2732.28      81.6944    12042.488 
   25650    304.64197    220.37395   -3179.1316   -2725.9998   -268.66048    12038.408 
   25700    298.50846    220.21843   -3173.9476   -2729.9388   -70.735385    12033.935 
   25750    293.75773    219.99947   -3166.6491   -2729.7067    159.75175     12029.15 
   25800    300.24504    220.10961   -3170.3204   -2723.7287    107.18689    12024.151 
   25850    298.19788    219.98854   -3166.2845   -2722.7378    275.56116    12018.949 
   25900    292.03575    219.86789   -3162.2631    -2727.882    599.65501    12013.621 
   25950    290.70266    219.78291   -3159.4305   -2727.0323    777.11051    12008.333 
   26000     304.5097    220.16952   -3172.3175   -2719.3824    469.36903    12003.155 
   26050    295.32138    214.79288   -3159.7628   -2720.4946    818.39029    11997.971 
   26100    301.01412    214.94022   -3164.6741   -2716.9384    649.53112    11992.911 
   26150     311.3413    215.33967   -3177.9889   -2714.8924    334.08835    11987.906 
   26200    301.83163    215.03988   -3167.9961   -2719.0444    742.85317    11982.822 
   26250    314.30707    215.47296   -3182.4321   -2714.9242    471.23284     11977.81 
   26300    307.83639     215.2268   -3174.2267   -2716.3434    761.35839    11972.797 
   26350    319.16594    215.50581   -3183.5271    -2708.792    576.99885    11967.847 
   26400    314.47164     215.1724   -3172.4133   -2704.6606    829.91504    11962.938 
   26450    302.35058    214.80543   -3160.1811   -2710.4575    1227.2153    11958.158 
   26500    311.13955    215.13994   -3171.3312   -2708.5347    993.08254    11953.694 
   26550    302.45579    214.87808   -3162.6027   -2712.7227    1271.7573    11949.505 
   26600    304.83179    215.04155   -3168.0515   -2714.6374    1312.3467    11945.677 
   26650    315.66907    215.39061   -3179.6871   -2710.1533    1055.9959    11942.251 
   26700    304.52582    214.99092    -3166.364   -2713.4049    1373.6892     11939.12 
   26750    300.28465    214.80565   -3160.1883   -2713.5377    1487.7422    11936.408 
   26800    310.62809    215.15804   -3171.9348    -2709.899    1204.6819    11934.193 
   26850    324.39101     215.5873   -3186.2433   -2703.7362    887.83827    11932.331 
   26900    313.90384    215.22364   -3174.1215   -2707.2133    1256.4907     11930.69 
   26950     319.7836    215.35122   -3178.3741   -2702.7203    1084.4656    11929.405 
   27000    323.05225    215.55685   -3185.2284   -2704.7127    914.71266    11928.415 
   27050    316.92977    210.40194   -3180.0645   -2708.6555    1137.2934    11927.651 
   27100    310.89706    210.21373    -3173.791   -2711.3552    1290.2736    11927.192 
   27150    309.02174    210.20832   -3173.6107   -2713.9643    1245.9584    11927.111 
   27200      310.766    210.26676   -3175.5588   -2713.3179    1222.2916    11927.412 
   27250    308.46842    210.18478   -3172.8259   -2714.0025    1365.8202    11928.085 
   27300    310.09224    210.24682   -3174.8941   -2713.6554    1352.4136      11929.2 
   27350    314.06336    210.34905   -3178.3017   -2711.1562     1235.438    11930.747 
   27400    321.13624    210.66604   -3188.8679   -2711.2021       965.34    11932.662 
   27450    308.97856    210.27362   -3175.7872    -2716.205    1219.5928     11934.85 
   27500    322.43884    210.67397   -3189.1325   -2709.5291    833.70869    11937.361 
   27550    308.04375    210.18953   -3172.9844   -2714.7927    1177.9538    11940.107 
   27600    306.59268    210.21408   -3173.8025   -2717.7692    1058.7665    11943.182 
   27650    304.41198    210.27243   -3175.7478    -2722.958    1012.3313    11946.553 
   27700    303.25759    210.20912   -3173.6373   -2722.5646     1004.679    11950.214 
   27750    304.44138     210.3224   -3177.4133   -2724.5798    816.30536     11954.15 
   27800    290.86427    209.95813    -3165.271   -2732.6324    1083.3744    11958.297 
   27850    294.85296    210.14903   -3171.6342   -2733.0628     941.9512    11962.753 
   27900    305.05341    210.43907   -3181.3023   -2727.5584    581.12438    11967.466 
   27950    309.20383     210.6551   -3188.5033    -2728.586    288.34986    11972.245 
   28000    292.94513    210.14896   -3171.6321   -2735.8984    627.88489    11976.981 
   28050    297.05781    210.25122   -3175.0407   -2733.1897    482.97961    11981.779 
   28100    301.71197    210.51533   -3183.8444   -2735.0708    270.60948    11986.593 
   28150    301.90566    210.48577   -3182.8589   -2733.7971     244.9362    11991.318 
   28200    302.56567    210.48195   -3182.7317   -2732.6882    150.00848    11995.925 
   28250    296.74289    210.37331   -3179.1102   -2737.7277    214.85737    12000.375 
   28300    287.48713    210.11506    -3170.502   -2742.8866    302.32057    12004.718 
   28350    299.64633    210.46965   -3182.3218   -2736.6206   -93.606142    12008.956 
   28400    288.07582    210.13534   -3171.1781   -2742.6871    187.84347    12012.945 
   28450    289.31448    210.17517   -3172.5058   -2742.1724    128.31737    12016.793 
   28500     304.9756     210.6685   -3188.9501    -2735.322   -321.86544    12020.439 
   28550    295.35588    210.41734    -3180.578   -2741.2585   -68.183291    12023.704 
   28600    289.68371    210.16226   -3172.0753   -2741.1928    65.573804    12026.677 
   28650    292.76611    210.34447   -3178.1491   -2742.6817   -164.34444    12029.407 
   28700    295.38334    210.50659    -3183.553   -2744.1927   -344.49804    12031.807 
   28750    291.87166     210.3451   -3178.1699   -2744.0329   -295.60226    12033.796 
   28800     291.5113    210.33955   -3177.9852   -2744.3842   -340.21996    12035.374 
   28850    295.86347    210.56317   -3185.4391   -2745.3646   -571.64451    12036.503 
   28900    285.31962    210.18897   -3172.9655   -2748.5742    -249.9656    12037.106 
   28950    282.74654    210.05006   -3168.3352   -2747.7712    -124.1193    12037.313 
   29000    300.78002     210.5776   -3185.9199   -2738.5324   -657.07928     12037.14 
   29050    291.09884    210.31259   -3177.0865    -2744.099    -422.7793      12036.4 
   29100    283.47309    210.13834   -3171.2779   -2749.6332   -205.51405    12035.168 
   29150    286.91119    210.22492   -3174.1641   -2747.4055   -343.40703     12033.55 
   29200    298.12647    210.58934   -3186.3112   -2742.8706   -682.42039    12031.472 
   29250    292.03866    210.43575   -3181.1916   -2746.8062   -433.66529    12028.789 
   29300    292.27463    210.44757   -3181.5858   -2746.8494   -360.02904      12025.6 
   29350    291.67035    210.47581   -3182.5269   -2748.6894   -294.33697    12021.948 
   29400    282.38924    210.13657   -3171.2191   -2751.1865    93.274982    12017.888 
   29450    290.02598    210.33643   -3177.8809   -2746.4892    -62.93354    12013.575 
   29500    296.13242    210.55071   -3185.0237   -2744.5492   -201.68454     12008.95 
   29550    301.93678    210.68099   -3189.3663   -2740.2583   -267.48442    12003.933 
   29600    292.90447    210.39833   -3179.9443   -2744.2711    73.032549    11998.509 
   29650    313.38513    210.96959   -3198.9863   -2732.8496   -342.66551    11992.782 
   29700    307.32341    210.84146   -3194.7155   -2737.5952   -102.08117     11986.62 
   29750    291.70777    210.43474    -3181.158   -2747.2648    367.21394     11980.11 
   29800    290.54611    210.33714   -3177.9047   -2745.7394    385.06466    11973.491 
   29850    290.91458      210.358   -3178.5999   -2745.8866    462.10309    11966.791 
   29900    296.32474    210.54302   -3184.7675   -2744.0069    422.04975    11960.038 
   29950    296.86239    210.54039   -3184.6795   -2743.1192    419.99854    11953.234 
   30000    295.96501    210.57559    -3185.853   -2745.6275    475.56653     11946.35 
   30050    312.10074    206.08219   -3202.7396   -2738.5134    105.14841    11939.393 
   30100    310.05719    205.92424   -3197.4748   -2736.2882    388.34684    11932.219 
   30150    295.98501    205.45356   -3181.7853     -2741.53    956.74519    11924.945 
   30200    314.28247    206.07595   -3202.5318   -2735.0604    413.47287    11917.813 
   30250    314.10209    206.17197   -3205.7325   -2738.5294    331.55502     11910.62 
   30300    297.78524    205.64857   -3188.2855   -2745.3525     894.7443    11903.323 
   30350    298.14105    205.61472   -3187.1575   -2743.6953    1147.3358    11896.165 
   30400    301.96584    205.67442   -3189.1474   -2739.9961    1242.0796    11889.294 
   30450    312.30102    206.10031   -3203.3437   -2738.8196    982.13018    11882.743 
   30500    310.25586    206.03416   -3201.1387   -2739.6566    1082.3725    11876.424 
   30550    315.68704    206.15561   -3205.1869   -2735.6264     1060.413     11870.35 
   30600     291.4938    205.39422   -3179.8073   -2746.2324    1862.2697    11864.573 
   30650    310.73047    206.01611    -3200.537   -2738.3489    1351.2691    11859.384 
   30700    318.03284    206.24048    -3208.016   -2734.9663    1184.8469    11854.622 
   30750    301.35984    205.70014   -3190.0047   -2741.7548    1684.1332    11850.195 
   30800    320.34438     206.3122   -3210.4065   -2733.9185    1106.5487    11846.273 
   30850    306.44096    205.95099   -3198.3662   -2742.5585    1459.1244    11842.677 
   30900    302.35846    205.81533   -3193.8444   -2744.1091    1582.2473    11839.525 
   30950    319.89516    206.37179   -3212.3931   -2736.5733    1166.6384    11836.862 
   31000    319.11316    206.39671   -3213.2236    -2738.567    1284.7135    11834.528 
   31050    318.12905     206.3551   -3211.8368    -2738.644    1333.6447    11832.556 
   31100    304.31855    205.90601   -3196.8672   -2744.2164    1762.5179    11830.982 
   31150     304.1649    205.99752   -3199.9173    -2747.495    1761.7224    11830.008 
   31200    310.07946     206.2089   -3206.9634   -2745.7437     1502.956     11829.65 
   31250    307.58832    206.09298   -3203.0993    -2745.585    1517.8437    11829.783 
   31300    304.24636    205.93938   -3197.9793   -2745.4359    1653.7321     11830.42 
   31350    308.41454    206.13041   -3204.3471   -2745.6038    1491.7937     11831.62 
   31400     311.8083    206.27519   -3209.1731   -2745.3819    1345.3534    11833.303 
   31450    299.12058    205.95094   -3198.3647   -2753.4456    1600.3207    11835.432 
   31500    308.27799    206.18602   -3206.2007   -2747.6606     1307.494    11838.075 
   31550    295.91075    205.86784   -3195.5947   -2755.4499    1601.1186    11841.149 
   31600    307.14986    206.27244   -3209.0813   -2752.2192    1196.5314    11844.734 
   31650    296.75875    205.96244   -3198.7481    -2757.342    1350.5373    11848.717 
   31700    300.12782    206.06553   -3202.1843   -2755.7669    1185.6375    11853.113 
   31750    313.11827    206.56185   -3218.7282   -2752.9885    679.24971    11857.849 
   31800    299.93449    206.12924   -3204.3081   -2758.1783    961.62518    11862.715 
   31850    305.86854    206.23184   -3207.7281   -2752.7718    815.98729    11867.779 
   31900    308.77152    206.45041   -3215.0135   -2755.7393    628.46213    11872.996 
   31950    302.00594    206.16342   -3205.4473   -2756.2363    776.16289    11878.293 
   32000    301.83867    206.14992   -3204.9975   -2756.0353     794.3925    11883.725 
   32050    303.14308    206.26404   -3208.8012   -2757.8989    743.44286    11889.297 
   32100    296.33677    206.08119   -3202.7063   -2761.9278    759.05192    11895.023 
   32150    296.07737    206.08991   -3202.9972   -2762.6045    694.12781    11900.878 
   32200    296.40491    206.03236   -3201.0788   -2760.1989    682.56162    11906.851 
   32250    298.71394    206.08951   -3202.9836   -2758.6692    560.18354    11912.922 
   32300    288.01768    205.79856   -3193.2852   -2764.8807    723.65101    11919.048 
   32350    291.15392    205.90517    -3196.839   -2763.7696    481.58505     11925.27 
   32400    290.46819    205.84117   -3194.7057   -2762.6563    438.58195    11931.512 
   32450    288.30901    205.78172   -3192.7239   -2763.8861    450.16097    11937.736 
   32500     295.1393    206.05498   -3201.8327   -2762.8354    110.32498     11943.92 
   32550    292.87915    205.98447   -3199.4822   -2763.8466    55.937492    11949.937 
   32600    282.90681    205.65729   -3188.5764    -2767.774    255.92019    11955.747 
   32650    293.15028    205.96635   -3198.8783   -2762.8395   -78.263264    11961.398 
   32700    292.92522    205.96534   -3198.8446   -2763.1405   -127.22319    11966.777 
   32750     288.2535    205.77163   -3192.3875   -2763.6323    10.985717    11971.847 
   32800    285.69237    205.64559   -3188.1864   -2763.2406    41.049249    11976.656 
   32850    291.67093    205.75513   -3191.8377   -2757.9993   -185.80759    11981.227 
   32900     299.5592    205.96107   -3198.7023   -2753.1307   -437.63869    11985.443 
   32950    290.13032    205.72353   -3190.7843   -2759.2375   -234.27454    11989.179 
   33000    275.49188    205.31143   -3177.0476   -2767.2743    151.78748     11992.55 
   33050    275.82694    200.36996   -3178.9985   -2768.7269    109.04228    11995.715 
   33100    294.07531     200.8775   -3195.9167   -2758.5019   -445.25051    11998.639 
   33150    305.28524    201.12589   -3204.1962   -2750.1076   -750.54243    12001.062 
   33200    293.25788    200.86648   -3195.5495   -2759.3506   -481.32473     12002.82 
   33250    298.55815    200.97552   -3199.1839   -2755.1013   -540.19298    12004.007 
   33300     290.8629    200.70077   -3190.0256   -2757.3891   -363.32972    12004.637 
   33350    296.38862    200.86779   -3195.5929   -2754.7373   -551.76959    12004.775 
   33400    296.84475    200.84005   -3194.6683   -2753.1342   -496.20758    12004.353 
   33450    296.42723    200.80214   -3193.4047   -2752.4916   -404.78483    12003.381 
   33500    293.81512    200.72261   -3190.7537   -2753.7259   -332.96397    12001.901 
   33550    303.32134    201.00524   -3200.1748   -2749.0073   -648.19623    11999.923 
   33600    299.92857    200.86394   -3195.4648   -2749.3438   -464.59913    11997.323 
   33650    294.64657      200.671   -3189.0334    -2750.769   -201.55813    11994.172 
   33700    290.32033    200.51048   -3183.6828   -2751.8533  -0.66159675    11990.617 
   33750    291.30456    200.59443   -3186.4811   -2753.1876   -7.9062512    11986.753 
   33800    307.24719    201.07762   -3202.5875   -2745.5805   -375.66014    11982.577 
   33850    301.72331    200.88131   -3196.0436    -2747.253   -154.91761    11977.922 
   33900    298.52924    200.80291   -3193.4304   -2749.3908    23.293731    11972.872 
   33950    306.46994    201.10138   -3203.3793   -2747.5285   -94.770947    11967.513 
   34000    303.39935    201.07164   -3202.3881   -2751.1045    47.974783    11961.817 
   34050    297.63546    200.89547   -3196.5155   -2753.8054    345.38929    11955.839 
   34100    293.96987    200.71405   -3190.4683   -2753.2104    563.38455     11949.74 
   34150    302.01664    200.86704   -3195.5681   -2746.3412    440.35769    11943.603 
   34200    293.32019     200.6344   -3187.8135   -2751.5219    680.33173    11937.406 
   34250    304.55478    200.88669    -3196.223   -2743.2208    412.34519    11931.238 
   34300    304.94045    200.90679    -3196.893   -2743.3172    442.36686    11924.989 
   34350    303.23079    200.87717   -3195.9057   -2744.8729     562.2031    11918.673 
   34400    319.68846    201.30546    -3210.182   -2734.6697    289.61667    11912.319 
   34450     311.1611    201.12722   -3204.2406   -2741.4121    591.52845    11905.838 
   34500    308.53278    201.14247   -3204.7491     -2745.83    788.67768    11899.344 
   34550    293.85737     200.6636   -3188.7867   -2751.6961    1252.7021    11892.977 
   34600    297.75277    200.77004   -3192.3345   -2749.4498     1175.634    11886.921 
   34650    301.62625    200.82059   -3194.0197   -2745.3735    1121.9206     11881.18 
   34700    302.60977     200.9474   -3198.2466   -2748.1375    1176.2674    11875.707 
   34750    308.49829    201.06351   -3202.1171   -2743.2493      1150.78    11870.523 
   34800    313.17802     201.1645   -3205.4835   -2739.6549    1065.9173    11865.631 
   34850    313.83639    201.30961   -3210.3203   -2743.5125    1008.4228     11860.97 
   34900    311.18695    201.24612   -3208.2039   -2745.3369     1186.096    11856.537 
   34950    313.92622    201.30624    -3210.208   -2743.2665    1159.0983    11852.402 
   35000    312.57588    201.36792   -3212.2641   -2747.3311    1138.2294    11848.536 
   35050     303.8076    196.01761   -3200.5872   -2748.6964    1428.4633    11844.949 
   35100    314.60069    196.39239   -3213.0796   -2745.1349     1170.277    11841.745 
   35150    315.07208    196.54285   -3218.0949    -2749.449    1064.1848    11838.836 
   35200    317.40781    196.55642   -3218.5473   -2746.4272    1032.9877    11836.142 
   35250    305.45541    196.16543   -3205.5142   -2751.1725    1356.7306    11833.673 
   35300    319.57023     196.5123   -3217.0767   -2741.7402    1008.1243    11831.545 
   35350    323.23629    196.74247   -3224.7491   -2743.9596    973.98142    11829.626 
   35400    290.67493    195.79702    -3193.234   -2760.8771    1830.7477    11827.935 
   35450    310.50478    196.30357   -3210.1191   -2748.2668     1332.635    11826.793 
   35500    309.12444    196.32288   -3210.7626   -2750.9635     1324.421    11826.057 
   35550    326.26784    196.90468   -3230.1561   -2744.8574    881.34416    11825.649 
   35600    314.65148    196.54551   -3218.1835   -2750.1633      1226.95    11825.421 
   35650     309.6612    196.43613   -3214.5378   -2753.9402    1373.7249    11825.474 
   35700    299.91615    196.14078   -3204.6928   -2758.5902    1613.4634    11825.924 
   35750    297.55274    196.14245   -3204.7485   -2762.1613    1628.7384    11826.891 
   35800     310.2693    196.48145   -3216.0484   -2754.5463    1236.9295    11828.369 
   35850    298.92765    196.20484   -3206.8279   -2762.1957    1444.2339    11830.192 
   35900    321.71269      196.854   -3228.4667   -2749.9435    805.28824    11832.399 
   35950    323.23157    196.95922   -3231.9738   -2751.1914    701.28512    11834.747 
   36000    314.39135    196.65281   -3221.7602   -2754.1269    966.54136    11837.152 
   36050    301.28479    196.34493   -3211.4977   -2763.3595    1226.1237    11839.756 
   36100    302.22647    196.32009   -3210.6698   -2761.1308    1127.1484    11842.678 
   36150    309.19514     196.5813   -3219.3766   -2759.4723    807.05597    11845.873 
   36200    313.16903    196.77147   -3225.7157   -2759.9005    597.72798     11849.17 
   36250    301.46597     196.5228   -3217.4267   -2769.0189     806.8462    11852.502 
   36300    296.95874    196.29513   -3209.8377    -2768.134    975.31939     11855.94 
   36350     295.5263    196.28191   -3209.3971   -2769.8241    987.89068    11859.565 
   36400    289.10217    196.12505   -3204.1684   -2774.1509    1051.1271    11863.428 
   36450    292.06998    196.16116    -3205.372     -2770.94    885.37695    11867.537 
   36500    303.20625     196.4342   -3214.4734   -2763.4771    602.81299    11871.804 
   36550    299.24141    196.37221    -3212.407   -2767.3081    650.13773    11876.114 
   36600    314.54668     196.8655   -3228.8499   -2760.9855     218.2568    11880.432 
   36650    295.79402    196.37915   -3212.6383   -2772.6671    620.72749    11884.608 
   36700    291.66371    196.22903   -3207.6344   -2773.8067    681.65404    11888.795 
   36750    299.30524    196.36584   -3212.1947   -2767.0008    415.63862    11893.032 
   36800    301.74257    196.44079   -3214.6929   -2765.8737    282.40951    11897.191 
   36850    305.73198    196.51769   -3217.2563   -2762.5032    207.21728    11901.199 
   36900    293.29613    196.24898   -3208.2992   -2772.0434    396.22666    11905.045 
   36950    307.66666    196.75053   -3225.0176   -2767.3868   -118.86587     11908.76 
   37000    298.35728     196.4891   -3216.3032   -2772.5193    98.065914    11912.164 
   37050    287.82784    201.20415   -3206.8049   -2778.6828    336.92193    11915.326 
   37100    285.48408    201.19017   -3206.3389    -2781.703    244.40328    11918.371 
   37150    290.24833    201.29192   -3209.7306   -2778.0082    48.574265    11921.268 
   37200    298.31229    201.53479   -3217.8264   -2774.1094   -194.01052    11923.899 
   37250    279.41238    200.97738    -3199.246   -2783.6413    257.36316    11926.199 
   37300    290.77873    201.28795   -3209.5983    -2777.087   -10.678471    11928.309 
   37350    290.22776     201.2914   -3209.7134   -2778.0216   -31.778406    11930.171 
   37400    294.97019    201.38108   -3212.7026   -2773.9568   -110.65002    11931.735 
   37450    287.32954    201.12304   -3204.1014   -2776.7205    112.21952     11932.98 
   37500    288.53958    201.20705   -3206.9017    -2777.721    60.969709    11933.996 
   37550    279.80858    200.85407   -3195.1356   -2778.9415    305.82855    11934.784 
   37600    292.95025     201.2632   -3208.7734   -2773.0321   -110.81757    11935.414 
   37650     302.5904    201.54289   -3218.0963    -2768.016   -367.72406    11935.712 
   37700     291.4861    201.23694   -3207.8979   -2774.3344   -66.519913    11935.553 
   37750    301.35202    201.52297   -3217.4325   -2769.1942    -323.4864    11935.038 
   37800    292.48797    201.29089   -3209.6963   -2774.6426   -82.186901     11934.11 
   37850       299.96    201.53977   -3217.9923   -2771.8245   -308.88199    11932.802 
   37900    282.98343    200.99313   -3199.7708   -2778.8544    153.76001    11931.091 
   37950    282.51952    200.92277   -3197.4255   -2777.1991    286.73265    11929.162 
   38000    286.69911     200.9765   -3199.2167   -2772.7735    233.19658    11927.103 
   38050    298.84451    201.30977   -3210.3256    -2765.817   -26.867846    11924.864 
   38100    292.80608    201.09361   -3203.1203   -2767.5935    189.40362    11922.339 
   38150    295.34237    201.17656   -3205.8854    -2766.586    73.487625    11919.598 
   38200    294.67176    201.14212   -3204.7375   -2766.4356    155.85762    11916.614 
   38250    295.94453    201.15257   -3205.0856   -2764.8905    276.96043    11913.418 
   38300    301.18778    201.37525   -3212.5084   -2764.5144    168.06445    11910.049 
   38350    299.28547    201.30425   -3210.1417   -2764.9773    298.71075    11906.488 
   38400    302.58847    201.36033   -3212.0109   -2761.9335     328.2253    11902.775 
   38450    287.47134    200.83667   -3194.5555   -2766.9637    822.46683     11898.96 
   38500    296.74293    201.21401   -3207.1335   -2765.7509    561.96639    11895.225 
   38550    298.53054    201.19201   -3206.4002   -2762.3587    528.45313    11891.502 
   38600    301.98196    201.19847   -3206.6156   -2757.4403    525.92171    11887.747 
   38650    303.46245    201.14071   -3204.6902   -2753.3128    582.83945    11883.978 
   38700    300.58378    201.02221   -3200.7405   -2753.6449     786.8128    11880.213 
   38750    302.15126    201.09127   -3203.0423   -2753.6152    907.16304    11876.551 
   38800    317.92903    201.50103   -3216.7011   -2743.8058    652.23093    11873.021 
   38850    300.05827     200.9124   -3197.0801   -2750.7661    1246.9624    11869.572 
   38900     314.4244    201.38674   -3212.8913   -2745.2088    850.86693    11866.407 
   38950    304.19524    200.99532   -3199.8441   -2747.3768    1110.1523     11863.41 
   39000    302.23244    200.92708   -3197.5693   -2748.0214    1214.9693    11860.663 
   39050    307.26594    201.11035   -3203.6783   -2746.6435    1137.7398    11858.245 
   39100     318.6733      201.437   -3214.5666   -2740.5642    864.15406    11856.096 
   39150    321.18477    201.47885   -3215.9616   -2738.2236    874.84382    11854.098 
   39200    301.56696    200.82961   -3194.3203   -2745.7623    1592.7422    11852.289 
   39250    312.37788    201.06761   -3202.2538   -2737.6154    1451.5424    11850.936 
   39300    312.79715    201.17724    -3205.908   -2740.6459    1363.5151    11850.043 
   39350    320.54156    201.31784   -3210.5946   -2733.8134    1156.9535    11849.549 
   39400    322.93522    201.25691   -3208.5638   -2728.2221    1131.9305    11849.355 
   39450    323.06393     201.2653   -3208.8434   -2728.3103    1115.6626    11849.427 
   39500     302.3508    200.69353   -3189.7842   -2740.0603    1639.0238    11849.795 
   39550    312.85071    200.93776   -3197.9253   -2732.5836    1450.0367    11850.659 
   39600    309.02383    200.79392   -3193.1306   -2733.4811    1503.8884    11851.999 
   39650    324.53755    201.29241   -3209.7468   -2727.0218    1005.3422    11853.784 
   39700    328.71337    201.37076   -3212.3587   -2723.4225    968.21161    11855.799 
   39750    317.27948    200.97444   -3199.1479   -2727.2187    1409.2739    11858.037 
   39800    321.38566    201.01816   -3200.6052   -2722.5684    1388.2721    11860.671 
   39850    306.92672    200.56576   -3185.5252    -2728.995    1775.9458     11863.75 
   39900    324.39655    201.07973   -3202.6577   -2720.1424    1242.4895    11867.407 
   39950    315.10204    200.87495   -3195.8317   -2727.1413    1337.1707    11871.431 
   40000     314.0275    200.84837   -3194.9458   -2727.8537     1314.794    11875.831 
   40050    325.67713    206.17279   -3205.7595   -2721.3395    967.23306    11880.623 
   40100    308.94493    205.66674   -3188.8914   -2729.3592    1387.1327    11885.687 
   40150    311.95975     205.6461   -3188.2032   -2724.1867    1367.6135     11891.15 
   40200    301.03358    205.25709   -3175.2362   -2727.4716    1649.6569    11897.078 
   40250    321.21024    205.97443   -3199.1477   -2721.3718    935.14204    11903.536 
   40300    303.85101    205.52287   -3184.0956   -2732.1402    1191.4095    11910.287 
   40350    306.65303    205.60871   -3186.9569   -2730.8338     966.2661    11917.368 
   40400    311.71961    205.76293   -3192.0978   -2728.4385    674.57799    11924.686 
   40450     302.7556    205.52364   -3184.1214   -2733.7954    772.53838    11932.123 
   40500    311.90347    205.83058   -3194.3526   -2730.4198    401.26746    11939.669 
   40550    296.52928    205.40781   -3180.2602   -2739.1954    683.98514    11947.212 
   40600    313.44107    205.95367   -3198.4556   -2732.2358    191.20597    11954.791 
   40650    304.25292      205.706   -3190.2001   -2737.6469    269.04435     11962.25 
   40700    299.39372    205.58704   -3186.2348   -2740.9093    251.06132    11969.606 
   40750    301.70894    205.68333   -3189.4443   -2740.6751    78.148629    11976.818 
   40800    301.63831    205.73276   -3191.0921   -2742.4279   -105.66036    11983.815 
   40850    288.48704    205.37637   -3179.2124   -2750.1098    104.27856    11990.518 
   40900     288.5129    205.36225   -3178.7415   -2749.6004    88.553207    11997.002 
   40950    298.22374    205.69544   -3189.8481   -2746.2629   -306.06066     12003.27 
   41000    299.65746     205.8234   -3194.1133   -2748.3955   -524.67648    12009.118 
   41050    291.79433    210.71207   -3190.4025   -2756.3805   -489.99411    12014.445 
   41100    284.73008    210.43369    -3181.123   -2757.6086   -322.86057     12019.27 
   41150    264.29687    209.86224   -3162.0746   -2768.9531    95.970639    12023.702 
   41200    277.63472    210.36406   -3178.8021   -2765.8415   -444.05977    12027.896 
   41250    280.25595    210.49972   -3183.3241   -2766.4646   -524.37678    12031.652 
   41300    289.65563    210.71813   -3190.6044   -2759.7636   -768.04438     12034.88 
   41350    292.80337    210.82991   -3194.3303   -2758.8075   -910.20463    12037.456 
   41400    288.34036    210.74038   -3191.3459   -2762.4615   -809.25404    12039.307 
   41450    283.68034    210.60378   -3186.7927   -2764.8397   -678.94213    12040.464 
   41500    263.34689    210.07074   -3169.0246   -2777.3161   -119.43524    12041.048 
   41550    277.09065    210.47688   -3182.5626   -2770.4112   -433.23145    12041.275 
   41600    290.86307    210.85794   -3195.2648   -2762.6281   -816.31441    12041.023 
   41650    285.78019    210.73392   -3191.1306   -2766.0542   -698.43818    12040.108 
   41700    280.04637    210.46488   -3182.1626   -2765.6149   -555.11203    12038.557 
   41750    285.21083    210.73989   -3191.3296   -2767.1001   -841.60215    12036.434 
   41800    268.83807    210.21184   -3173.7279   -2773.8517   -370.54014     12033.66 
   41850    279.58043    210.49723    -3183.241   -2767.3863   -548.36029    12030.386 
   41900    287.96479    210.75375   -3191.7917   -2763.4659   -809.57659    12026.574 
   41950    283.69669    210.73063   -3191.0209   -2769.0435   -707.05885    12022.087 
   42000    282.65287    210.60125   -3186.7085   -2766.2837    -544.6475    12016.954 
   42050    287.16226    205.71933   -3190.6442   -2763.5121   -567.71736    12011.251 
   42100    279.19598    205.44974   -3181.6581   -2766.3752   -311.69923     12004.99 
   42150    284.66924    205.67122   -3189.0406   -2765.6167   -381.47095    11998.258 
   42200    285.87119    205.77129   -3192.3763   -2767.1646   -353.42845    11991.058 
   42250    278.08318    205.55065   -3185.0217   -2771.3941   -84.593334    11983.409 
   42300    283.81397    205.72049   -3190.6829   -2768.5311   -157.09524    11975.425 
   42350    295.47611    206.03415   -3201.1384   -2761.6401   -337.90944    11967.067 
   42400     279.6185    205.59033   -3186.3443   -2770.4329    228.88973    11958.284 
   42450    293.04319    205.96491   -3198.8302   -2762.9506    47.135508    11949.295 
   42500    307.22169    206.32976   -3210.9921   -2754.0231   -215.62179    11940.043 
   42550    301.82308    206.14212   -3204.7374   -2755.7984    119.77886    11930.413 
   42600    283.01834    205.55126    -3185.042   -2764.0736    746.78798    11920.587 
   42650     294.2346    205.93627   -3197.8757    -2760.224    616.82546    11910.829 
   42700    298.79796    206.06888   -3202.2959   -2757.8566    665.29052    11901.122 
   42750    315.22096    206.46626    -3215.542   -2746.6748    372.81367    11891.472 
   42800    317.50218    206.40827   -3213.6088   -2741.3484    568.30898    11881.738 
   42850    299.39081    205.93548   -3197.8494   -2752.5283    1273.4486    11872.026 
   42900    294.54613    205.83379   -3194.4595   -2756.3445    1543.9862    11862.669 
   42950    288.76698    205.56061   -3185.3536   -2755.8346    1891.3135    11853.845 
   43000    314.41075     206.3635   -3212.1168   -2744.4547    1296.2571    11845.666 
   43050    307.01773    206.17966   -3205.9887   -2749.3231    1552.8451    11837.911 
   43100    301.09871    206.02706   -3200.9022   -2753.0406    1759.7759    11830.669 
   43150    328.85053    206.71566   -3223.8554   -2734.7151     1141.653     11824.01 
   43200    304.55504    205.93273   -3197.7576   -2744.7551    1898.8338    11817.731 
   43250    314.24184    206.30512   -3210.1705   -2742.7596    1695.3065    11812.067 
   43300    312.17762    206.22898   -3207.6326   -2743.2921    1862.4384    11807.001 
   43350    308.18053    206.03641   -3201.2137   -2742.8185    2076.7951    11802.609 
   43400    318.87631    206.29282   -3209.7608   -2735.4565     1810.117    11798.971 
   43450    325.83644    206.52506    -3217.502    -2732.845    1637.2703    11795.955 
   43500    308.93453    206.00572   -3200.1906   -2740.6739     2104.838    11793.506 
   43550    311.79878    206.01601   -3200.5337   -2736.7567    2040.3326    11791.812 
   43600    312.39069    206.06936   -3202.3121   -2737.6546    2085.9637    11790.891 
   43650    302.59582    205.72797   -3190.9322   -2740.8438    2455.2193    11790.761 
   43700      316.945    206.19498   -3206.4992   -2735.0676    2007.4711    11791.546 
   43750    320.76496    206.34637   -3211.5456   -2734.4321    1856.5684    11793.086 
   43800    320.81848    206.40956    -3213.652   -2736.4588    1786.5844    11795.293 
   43850    330.26515    206.67807   -3222.6023   -2731.3579    1432.0539    11798.122 
   43900    318.00931    206.29273   -3209.7575   -2736.7428    1749.1204    11801.427 
   43950    297.51872    205.66323   -3188.7743   -2746.2378    2310.5628    11805.345 
   44000    309.91301    206.12887   -3204.2956   -2743.3235    1866.6955    11810.115 
[...]
   89400     301.5549    219.44855   -3148.2849   -2699.7448    242.33693    12079.839 
   89450    302.36071      219.519   -3150.6334   -2700.8948    157.56275    12082.801 
   89500    284.72949    218.96399   -3132.1329   -2708.6194    630.32894    12085.646 
   89550    297.53449    219.31976   -3143.9921   -2701.4321    234.94777    12088.551 
   89600    299.38648    219.39714   -3146.5715   -2701.2568     89.95876    12091.373 
   89650    291.59766    219.25373   -3141.7909   -2708.0615     279.3732    12094.016 
   89700    296.90334    219.35452   -3145.1506   -2703.5294    116.00276    12096.559 
   89750    306.74443     219.6779   -3155.9301    -2699.671   -226.89865    12098.928 
   89800    294.12957    219.35122   -3145.0407   -2707.5453    25.256876    12100.987 
   89850    287.75098    219.11997   -3137.3325   -2709.3247    175.79422    12102.822 
   89900    291.15549    219.18594   -3139.5314   -2706.4597    128.07955     12104.51 
   89950    284.34747    219.00389   -3133.4629   -2710.5176    304.67086    12106.045 
   90000     296.5844    219.45614    -3148.538   -2707.3912    -156.7171    12107.469 
   90050    300.24331    224.56373   -3152.1243   -2705.5351   -388.51312    12108.606 
   90100     294.5596    224.43423   -3147.8077   -2709.6727   -210.46232    12109.308 
   90150    283.92306    224.02764   -3134.2547   -2711.9407      207.169    12109.685 
   90200    284.68011    224.14034   -3138.0112   -2714.5711    93.797707    12109.926 
   90250    301.18386    224.73707   -3157.9024   -2709.9142   -537.87871    12109.969 
   90300    295.54718    224.52328   -3150.7761   -2711.1721   -409.20682    12109.542 
   90350    286.41308    224.19941   -3139.9805   -2713.9627   -93.931172    12108.687 
   90400    300.25444    224.73164   -3157.7212   -2711.1154   -370.41462    12107.521 
   90450    289.31641    224.32144   -3144.0479   -2713.7117    93.671797    12105.982 
   90500    285.97521     224.2816   -3142.7201   -2717.3536    127.89989     12104.25 
   90550    296.93978    224.65055   -3155.0182   -2713.3428   -195.96669    12102.338 
   90600    294.23382    224.57817   -3152.6057   -2714.9552   -82.866446    12100.135 
   90650    295.58964    224.58136   -3152.7121   -2713.0449   -45.107308    12097.658 
   90700    296.66382    224.56718   -3152.2393   -2710.9743    70.858931    12094.914 
   90750    281.02957    224.03787   -3134.5958   -2716.5856    621.29136    12092.007 
   90800    283.10308    224.11647   -3137.2157   -2716.1214    556.61094    12089.186 
   90850    297.73943    224.58127   -3152.7089   -2709.8441    148.27004     12086.42 
   90900    300.44603    224.66036   -3155.3453   -2708.4546     90.34927    12083.516 
   90950    297.02919    224.57503    -3152.501   -2710.6926    178.54104    12080.433 
   91000    296.16541    224.48463   -3149.4875   -2708.9639    234.81731    12077.221 
   91050     287.2341    219.15168   -3138.3892   -2711.1502    552.04486    12073.914 
   91100    294.00395    219.39313   -3146.4376    -2709.129    352.10048    12070.621 
   91150    297.82955     219.6097   -3153.6567   -2710.6578    190.32443    12067.278 
   91200    299.66424    219.71471   -3157.1569   -2711.4291    162.10166    12063.801 
   91250    299.30391    219.66576   -3155.5253   -2710.3334     209.2516     12060.17 
   91300    291.50769    219.36631   -3145.5437   -2711.9481    425.06645    12056.413 
   91350    307.34813    219.82355    -3160.785    -2703.628   -11.152519    12052.586 
   91400    302.63161    219.68143   -3156.0476    -2705.906    164.80273    12048.534 
   91450    301.88175    219.70933   -3156.9775   -2707.9513    306.07898      12044.3 
   91500    291.41743    219.37639   -3145.8798   -2712.4184    684.12834    12040.001 
   91550    302.03479    219.79442    -3159.814   -2710.5601    381.31804     12035.78 
   91600    291.94421    219.39423   -3146.4742   -2712.2293    711.46636    12031.554 
   91650    295.98848    219.50209   -3150.0696   -2709.8091    672.27383    12027.436 
   91700     310.6993    219.98634   -3166.2113   -2704.0697    312.68454     12023.42 
   91750    308.49156    219.91145   -3163.7151   -2704.8573    497.32885    12019.337 
   91800    298.48809    219.59441   -3153.1469   -2709.1685    919.50774    12015.276 
   91850    293.05931    219.46193   -3148.7309   -2712.8274    1075.0065    12011.443 
   91900    296.54882    219.57632   -3152.5441   -2711.4502     943.6868     12007.92 
   91950    305.51269    219.79489   -3159.8297   -2705.4028    728.61764    12004.641 
   92000    305.16802    219.89574   -3163.1914   -2709.2771    681.32146    12001.504 
   92050     303.0741     214.7681   -3158.9368   -2708.1371    801.89881    11998.487 
   92100    304.20811    214.85866   -3161.9552   -2709.4687    878.45072    11995.618 
   92150    318.70836    215.22376   -3174.1252   -2700.0707    586.45195    11992.935 
   92200    320.15278    215.25763   -3175.2542   -2699.0512    548.55663      11990.3 
   92250    307.43796    214.92403   -3164.1344   -2706.8437    810.15892    11987.687 
   92300    311.94399    215.07962   -3169.3205   -2705.3275    755.40881    11985.221 
   92350    303.64936    214.81932   -3160.6441   -2708.9887    1069.7898    11982.921 
   92400    313.03396    215.09385   -3169.7949   -2704.1806    785.31647     11980.88 
   92450    303.96434    214.87071    -3162.357   -2710.2331    1037.3836    11979.022 
   92500    316.41819     215.2509   -3175.0301    -2704.382    814.00171    11977.404 
   92550    302.79372     214.8228     -3160.76   -2710.3773     1189.272    11975.982 
   92600    311.03701    215.24485   -3174.8284   -2712.1844    908.83153    11974.878 
   92650    306.72005    215.07014   -3169.0046   -2712.7818    993.12196    11974.018 
   92700    306.30778    215.00155   -3166.7182   -2711.1086    960.78025    11973.397 
   92750    306.60218    215.00814   -3166.9379   -2710.8904    859.17429    11973.027 
   92800    319.93589    215.42254   -3180.7515   -2704.8711     518.5587    11972.827 
   92850    302.47468    214.87785    -3162.595   -2712.6868    1096.8364     11972.69 
   92900    309.57709    215.22637   -3174.2124   -2713.7399    881.19389    11972.816 
   92950    303.84405    215.18565   -3172.8551   -2720.9101    907.86748    11973.174 
   93000    294.16355    214.81734    -3160.578    -2723.032    1146.8137    11973.772 
   93050    296.10784    219.96022   -3165.3406   -2724.9026    983.64208    11974.716 
   93100    315.47269    220.50489   -3183.4964   -2714.2546    388.30906    11975.923 
   93150    299.09866    220.06212   -3168.7373   -2723.8507    782.37194    11977.159 
   93200    282.07192    219.52653   -3150.8844   -2731.3238    1274.1574    11978.577 
   93250    302.09701    220.18924   -3172.9748   -2723.6284    658.28956    11980.367 
   93300    298.13817    220.05176    -3168.392    -2724.934    750.11842     11982.33 
   93350    306.28153    220.25171   -3175.0571   -2719.4865    484.38695    11984.438 
   93400    310.49908    220.47473   -3182.4909   -2720.6471    246.58959    11986.562 
   93450    296.97803    220.06988   -3168.9959   -2727.2636    635.56409    11988.621 
   93500    294.25537    220.07287   -3169.0956   -2731.4131    660.30593     11990.78 
   93550    296.69408    220.17774   -3172.5914   -2731.2815    537.61062    11993.038 
   93600    280.97579    219.76881   -3158.9604   -2741.0302    899.91063      11995.4 
   93650    297.62065    220.23153   -3174.3843   -2731.6961    373.86544    11997.968 
   93700    311.93555    220.63089   -3187.6963   -2723.7158   -110.41972    12000.502 
   93750    292.13826    220.03942   -3167.9805    -2733.447    332.79309    12002.799 
   93800    290.52079    220.05783   -3168.5943   -2736.4667    333.65357    12005.016 
   93850    290.63737    220.07983   -3169.3275   -2737.0265    320.39195    12007.211 
   93900    285.34196    219.95497   -3165.1658   -2740.7413    451.26271    12009.343 
   93950    284.98344    219.90997   -3163.6658   -2739.7745    450.31818    12011.487 
   94000     291.6611    220.12078   -3170.6927   -2736.8689    167.42836    12013.645 
   94050    291.41329    220.11168   -3170.3892   -2736.9341    93.331605    12015.673 
   94100    288.69708    220.05979   -3168.6596   -2739.2446    44.465345    12017.526 
   94150    285.12802    219.98213   -3166.0712   -2741.9648    95.914644    12019.189 
   94200    283.71333    219.92146   -3164.0486   -2742.0465     78.64075    12020.674 
   94250    283.88798    219.85095   -3161.6985   -2739.4366    29.609269     12021.98 
   94300    302.36387    220.53586   -3184.5288   -2734.7855   -557.52856    12023.046 
   94350    304.80479     220.5656   -3185.5199   -2732.1459   -589.51917    12023.623 
   94400    289.89487    220.20104   -3173.3679   -2742.1713   -90.013962    12023.665 
   94450     274.1084    219.70426   -3156.8087   -2749.0932    434.01846     12023.44 
   94500    276.09612    219.72215   -3157.4049   -2746.7328    429.66555    12023.204 
   94550    289.94465    220.20755    -3173.585   -2742.3143    28.300111    12022.951 
   94600    284.00589    219.99568   -3166.5228   -2744.0856    171.12803    12022.536 
   94650    287.31288    220.02905    -3167.635   -2740.2789    65.637995    12021.952 
   94700    297.86696    220.43579   -3181.1931   -2738.1385    -230.6808    12021.155 
   94750    292.86406    220.20531   -3173.5104   -2737.8974   -8.9440545    12020.043 
   94800    285.69147    219.95783    -3165.261   -2740.3166    254.22246     12018.69 
   94850    277.32546    219.69212   -3156.4039   -2743.9033    568.98525    12017.248 
   94900     274.1526    219.63189   -3154.3965   -2746.6153    659.11151    12015.866 
   94950    294.68951     220.2515   -3175.0501   -2736.7218    1.9595815     12014.56 
   95000    295.85504    220.21769   -3173.9229   -2733.8609   -34.626008    12013.066 
   95050    298.13962    225.24677   -3174.8923   -2731.4322    55.806209     12011.32 
   95100    289.01983    224.96231   -3165.4102   -2735.5151     385.1179    12009.396 
   95150    293.34044    225.12058   -3170.6861   -2734.3644    299.53364    12007.419 
   95200    283.19995    224.79164   -3159.7214   -2738.4829    704.52101    12005.406 
   95250    293.15632    225.03958    -3167.986   -2731.9382    589.28759    12003.505 
   95300    297.97482    225.09895   -3169.9649   -2726.7499    536.82804    12001.695 
   95350    289.68077    224.83503   -3161.1675   -2730.2893    748.60836    11999.963 
   95400     302.5508    225.21214   -3173.7381   -2723.7167    488.29528    11998.362 
   95450    291.87658    224.68058   -3156.0192   -2721.8749     955.4508    11996.841 
   95500    297.00586     224.8179   -3160.5967    -2718.823    811.63772    11995.551 
   95550    295.02894    224.72403   -3157.4677   -2718.6346    837.55766    11994.488 
   95600    299.57804    224.87847   -3162.6155   -2717.0159    747.12856    11993.631 
   95650    313.04518     225.1261   -3170.8701   -2705.2391    548.11389    11992.936 
   95700    300.46962    224.75698   -3158.5659   -2711.6401    989.30388    11992.347 
   95750    295.47299    224.50889   -3150.2963   -2710.8026    1219.2272    11992.039 
   95800    301.51117    224.63549   -3154.5164   -2706.0414    1061.6967    11992.125 
   95850    301.33628    224.54615   -3151.5382   -2703.3234    1106.3686    11992.558 
   95900    309.01524    224.86919   -3162.3063   -2702.6696    814.36708    11993.346 
   95950    307.51933    224.73162   -3157.7205   -2700.3088    942.10883    11994.371 
   96000    293.73463    224.17895   -3139.2983   -2702.3903    1428.9309    11995.691 
   96050    313.13714     224.7415   -3158.0501   -2692.2824    939.65757    11997.487 
   96100    301.15043    224.34249   -3144.7497   -2696.8112     1236.543    11999.604 
   96150    300.76208    224.30848    -3143.616   -2696.2552    1183.4933    12002.135 
   96200    307.10665    224.52088    -3150.696   -2693.8982      979.675    12005.074 
   96250     296.6737    224.12201   -3137.4002   -2696.1206    1263.6785    12008.359 
   96300    306.82753    224.43941   -3147.9803   -2691.5976    972.20147    12012.066 
   96350    309.63703    224.52202   -3150.7342   -2690.1726     831.3614     12016.09 
   96400    321.62787    224.83902   -3161.3008   -2682.9037    528.44733    12020.324 
   96450    298.52888    224.15046   -3138.3487   -2694.3096    1192.1163    12024.682 
   96500    291.32678    223.99176   -3133.0586   -2699.7321    1298.8363     12029.43 
   96550     315.6875    224.71124   -3157.0414   -2687.4801    578.71792    12034.631 
   96600    314.46118    224.55835   -3151.9451   -2684.2079    610.72466    12039.981 
   96650    301.69339    224.17372   -3139.1239   -2690.3779    892.23605    12045.463 
   96700    301.82091    224.20045   -3140.0149   -2691.0792    791.49196    12051.192 
   96750    302.41527    224.20787   -3140.2622   -2690.4424    741.01327    12057.149 
   96800    312.17102    224.48162   -3149.3874   -2685.0567     452.9076    12063.297 
   96850    313.70379    224.51789   -3150.5964   -2683.9858    294.97784    12069.497 
   96900    307.33643    224.27673   -3142.5578   -2685.4182    399.69399    12075.675 
   96950    292.89114    223.79554    -3126.518   -2690.8646    756.97285    12081.873 
   97000    297.78119     224.0214   -3134.0468   -2691.1198    490.17095    12088.229 
   97050    289.00669    223.70436   -3123.4787   -2693.6032    687.40282    12094.694 
   97100    303.50636    224.25585   -3141.8616   -2690.4189    165.47484    12101.289 
   97150    308.15545    224.45446    -3148.482   -2690.1242   -156.65648    12107.809 
   97200    300.10334    224.12355   -3137.4516   -2691.0706    9.3976743    12114.082 
   97250    303.00659    224.20999   -3140.3329   -2689.6336   -101.06542    12120.138 
   97300     303.2134    224.22243   -3140.7478   -2689.7408   -106.50108     12125.95 
   97350     302.5965    224.10937    -3136.979   -2686.8896    -58.48391    12131.512 
   97400    304.57699    224.14255    -3138.085   -2685.0498   -166.92934    12136.824 
   97450    297.00194    223.95254   -3131.7514   -2689.9835   -112.74126    12141.845 
   97500    298.35771    223.97318   -3132.4394    -2688.655   -155.47062    12146.584 
   97550    288.80196    223.70927   -3123.6422   -2694.0712    124.84487    12151.066 
   97600    299.01035    224.14517   -3138.1723   -2693.4171   -297.55852    12155.358 
   97650    296.43358      224.005   -3133.4998   -2692.5774   -265.43656    12159.303 
   97700    291.62266    223.78219    -3126.073   -2692.3064   -95.157062    12162.897 
   97750    294.12612     223.8059   -3126.8634   -2689.3731   -145.12236    12166.219 
   97800    297.19714    223.94193   -3131.3978   -2689.3396   -363.74721    12169.263 
   97850    303.93959    224.15607   -3138.5356   -2686.4485   -636.32433    12171.892 
   97900    305.21656     224.2247   -3140.8232   -2686.8367   -712.81268    12173.964 
   97950     306.6105    224.21953   -3140.6509    -2684.591   -712.74684    12175.426 
   98000    297.85371    223.92042   -3130.6808    -2687.646   -441.98086    12176.298 
   98050    298.44633     218.8851   -3129.5033    -2685.587   -536.40461    12176.686 
   98100    305.31833    219.05449   -3135.1498   -2681.0119   -752.63614    12176.523 
   98150    291.03648    218.64224   -3121.4081   -2688.5134   -310.63593    12175.758 
   98200    298.86131    218.96466   -3132.1553   -2687.6218   -502.63089    12174.523 
   98250    297.98798    218.98814   -3132.9379   -2689.7034   -453.46793     12172.78 
   98300     298.2828    218.95447   -3131.8158   -2688.1428   -391.73032    12170.565 
   98350    307.16045    219.29942    -3143.314   -2686.4362   -619.15325    12167.875 
   98400     300.9244    219.14089   -3138.0297   -2690.4274     -401.146    12164.611 
   98450    293.61102     218.9157   -3130.5232   -2693.7991   -178.73212     12160.87 
   98500    299.30732    219.10963   -3136.9877   -2691.7907   -374.17513    12156.762 
   98550    299.92638    219.13503   -3137.8342   -2691.7164   -315.03928    12152.186 
   98600    292.47096    218.87208   -3129.0694    -2694.041   -28.486485    12147.209 
   98650    317.05052    219.64989   -3154.9964   -2683.4078   -661.72898    12141.909 
   98700    296.62677    219.06443   -3135.4812   -2694.2713   -91.133622    12136.048 
   98750    299.39233    219.07692   -3135.8974    -2690.574   -73.470866    12129.829 
   98800    304.02106    219.16945   -3138.9817   -2686.7734    -132.8277    12123.321 
   98850    318.47692    219.67972   -3155.9907   -2682.2804   -480.33218    12116.442 
   98900    307.63996    219.37485   -3145.8282   -2688.2371    19.805794    12109.067 
   98950    288.06962    218.77297   -3125.7657    -2697.284    681.75619    12101.449 
   99000    304.90669    219.32904   -3144.3012   -2690.7756    251.38987    12093.852 
   99050    297.89917    214.15694   -3138.5646   -2695.4622     517.0263    12086.165 
   99100    307.29849    214.42924   -3147.6413   -2690.5581    354.67834    12078.442 
   99150    315.56916     214.6334   -3154.4468   -2685.0616    239.73385    12070.604 
   99200     311.2219     214.4052     -3146.84    -2683.921    479.07404    12062.627 
   99250    310.66492    214.41852   -3147.2841   -2685.1936    526.11863    12054.616 
   99300    314.62979    214.60704   -3153.5681   -2685.5801    508.22263     12046.58 
   99350    300.34926    214.29005   -3143.0017    -2696.255    936.48671    12038.559 
   99400    319.53121    214.87818   -3162.6061   -2687.3276    588.78658    12030.691 
   99450    319.66341    214.89915    -3163.305   -2687.8299    616.41097    12022.875 
   99500    304.78278    214.50878   -3150.2927   -2696.9514    993.71735    12015.098 
   99550     287.4558    214.10184   -3136.7281   -2709.1594    1495.1457    12007.579 
   99600    309.59784    214.75165   -3158.3882   -2697.8849    930.40319    12000.509 
   99650     308.9861    214.79824   -3159.9412   -2700.3478     890.2863     11993.68 
   99700     319.5148    215.08402   -3169.4674   -2694.2134    702.76523    11987.032 
   99750     319.2168     215.1081     -3170.27   -2695.4592    812.73311    11980.488 
   99800      319.023    215.14175   -3171.3917   -2696.8691    858.79593    11974.066 
   99850    293.25022    214.38176   -3146.0586   -2709.8711    1569.6181    11967.858 
   99900    312.57901    215.06662   -3168.8875   -2703.9499    1013.4982    11962.132 
   99950    310.50007    215.17553   -3172.5177   -2710.6723    976.76894     11956.71 
  100000    321.37445    215.56916   -3185.6388   -2707.6186    648.01861    11951.485 
Loop time of 27.3247 on 1 procs for 100000 steps with 500 atoms

Performance: 316.198 ns/day, 0.076 hours/ns, 3659.697 timesteps/s
99.8% CPU use with 1 MPI tasks x 1 OpenMP threads

MPI task timing breakdown:
Section |  min time  |  avg time  |  max time  |%varavg| %total
---------------------------------------------------------------
Pair    | 22.17      | 22.17      | 22.17      |   0.0 | 81.14
Bond    | 0.0063529  | 0.0063529  | 0.0063529  |   0.0 |  0.02
Neigh   | 0.48744    | 0.48744    | 0.48744    |   0.0 |  1.78
Comm    | 0.7718     | 0.7718     | 0.7718     |   0.0 |  2.82
Output  | 0.018472   | 0.018472   | 0.018472   |   0.0 |  0.07
Modify  | 2.7136     | 2.7136     | 2.7136     |   0.0 |  9.93
Other   |            | 1.157      |            |       |  4.23

Nlocal:    500 ave 500 max 500 min
Histogram: 1 0 0 0 0 0 0 0 0 0
Nghost:    1602 ave 1602 max 1602 min
Histogram: 1 0 0 0 0 0 0 0 0 0
Neighs:    14632 ave 14632 max 14632 min
Histogram: 1 0 0 0 0 0 0 0 0 0

Total # of neighbors = 14632
Ave neighs/atom = 29.264
Ave special neighs/atom = 0
Neighbor list builds = 589
Dangerous builds = 0

write_data      ${walker}/final_restart_file
write_data      0/final_restart_file

quit
