LAMMPS (19 May 2017)
Processor partition = 0
  using 1 OpenMP thread(s) per MPI task
# gREM variables
variable        lambda world 1000 1005 1010 1015 1020 1025 1030 1035 1040 1045 1050 1055 1060 1065 1070 1075
variable        walker world 0 1 2 3 4 5 6 7 8 9 10 11 12 13 14 15
variable        replica world 0 1 2 3 4 5 6 7 8 9 10 11 12 13 14 15

variable        T0 equal 300.0
variable        press equal 0.0

units           real
atom_style      full
pair_style      lj/cut 5.0

# LJ particles
read_data       init_restart_file
  orthogonal box = (1.27034 1.27034 1.27034) to (23.7297 23.7297 23.7297)
  1 by 1 by 1 MPI processor grid
  reading atoms ...
  500 atoms
  reading velocities ...
  500 velocities
  0 = max # of 1-2 neighbors
  0 = max # of 1-3 neighbors
  0 = max # of 1-4 neighbors
  1 = max # of special neighbors

#dump            dump all xyz 1000 ${rep}/dump.xyz

fix             fxnpt all npt temp ${T0} ${T0} 1000.0 iso ${press} ${press} 10000.0
fix             fxnpt all npt temp 300 ${T0} 1000.0 iso ${press} ${press} 10000.0
fix             fxnpt all npt temp 300 300 1000.0 iso ${press} ${press} 10000.0
fix             fxnpt all npt temp 300 300 1000.0 iso 0 ${press} 10000.0
fix             fxnpt all npt temp 300 300 1000.0 iso 0 0 10000.0
fix             fxgREM all grem ${lambda} -.03 -30000 fxnpt
fix             fxgREM all grem 1000 -.03 -30000 fxnpt
thermo_modify   press fxgREM_press

thermo          50
thermo_style    custom step temp f_fxgREM pe etotal press vol
WARNING: New thermo_style command, previous thermo_modify settings will be lost (../output.cpp:705)
timestep        1.0

temper/grem     100000 1000 ${lambda} fxgREM fxnpt 10294 98392 #${walker}
temper/grem     100000 1000 1000 fxgREM fxnpt 10294 98392 
Neighbor list info ...
  update every 1 steps, delay 10 steps, check yes
  max neighbors/atom: 2000, page size: 100000
  master list distance cutoff = 7
  ghost atom cutoff = 7
  binsize = 3.5, bins = 7 7 7
  1 neighbor lists, perpetual/occasional/extra = 1 0 0
  (1) pair lj/cut, perpetual
      attributes: half, newton on
      pair build: half/bin/newton
      stencil: half/bin/3d/newton
      bin: standard
Per MPI rank memory allocation (min/avg/max) = 5.728 | 5.728 | 5.728 Mbytes
Step Temp f_fxgREM PotEng TotEng Press Volume 
       0    299.42262      202.507      -3416.9   -2971.5315    1317.0315    11328.967 
      50    229.40774    200.53011   -3351.0037   -3009.7771    3205.4633    11329.233 
     100    209.59226    200.02553   -3334.1845   -3022.4319    3732.4583    11330.701 
     150    219.45634     200.2903   -3343.0099   -3016.5852    3425.0195    11333.712 
     200    231.02278    200.61751   -3353.9171   -3010.2882    3112.9796    11338.127 
     250    233.70625    200.60095   -3353.3649   -3005.7446    3031.4813    11343.812 
     300    227.15906    200.40569   -3346.8563   -3008.9744     3147.763    11350.717 
     350    229.46696    200.39158   -3346.3859   -3005.0712    2977.2819     11358.89 
     400    237.41002    200.56798    -3352.266   -2999.1366    2678.5011    11368.251 
     450    227.70935    200.23773   -3341.2576   -3002.5572    2808.9645    11378.697 
     500    231.11899    200.26013   -3342.0042   -2998.2322     2636.596    11390.257 
     550    237.72089    200.46303   -3348.7676   -2995.1758    2324.8516    11402.844 
     600    237.25681    200.32181   -3344.0605   -2991.1589    2206.7085     11416.34 
     650    228.88826    200.00537   -3333.5123   -2993.0584    2272.9556    11430.694 
     700    233.71853    200.11954   -3337.3179   -2989.6793    1961.2148    11445.894 
     750     232.9682      199.979   -3332.6334   -2986.1109    1795.1482    11461.827 
     800    228.32214    199.85885   -3328.6282   -2989.0163    1690.7389    11478.416 
     850    235.34513    199.90796   -3330.2652   -2980.2071    1414.6813    11495.593 
     900     230.3097    199.68729   -3322.9098   -2980.3416    1372.5708    11513.229 
     950    242.94383    200.03452    -3334.484   -2973.1234    825.98525    11531.257 
    1000    235.52707    199.81153   -3327.0511   -2976.7224    782.58655     11549.47 
    1050    224.94207    204.40999   -3313.6665   -2979.0822    961.78742    11567.817 
    1100    225.08539    204.31855   -3310.6182   -2975.8207    802.40882    11586.378 
    1150     228.5894    204.35413   -3311.8043   -2971.7949    505.22052    11605.074 
    1200    233.22698    204.40248    -3313.416   -2966.5085    246.76048    11623.744 
    1250    227.66005    204.15433   -3305.1443   -2966.5172    152.12177    11642.272 
    1300    234.53107    204.24343   -3308.1143   -2959.2671   -191.01632    11660.575 
    1350    236.86291    204.19849   -3306.6163   -2954.3007   -378.96702    11678.498 
    1400    227.78721    203.84138   -3294.7125   -2955.8963   -320.58104    11695.947 
    1450    219.10605    203.59421   -3286.4738   -2960.5701   -206.92723     11712.93 
    1500    220.69839    203.47642   -3282.5474   -2954.2753    -304.6884    11729.504 
    1550    230.64815    203.68042   -3289.3473   -2946.2756   -771.13968    11745.604 
    1600     235.2117     203.7365   -3291.2167   -2941.3571   -1014.6141    11761.016 
    1650    233.60449    203.60376   -3286.7921   -2939.3231   -992.85989    11775.605 
    1700    233.27676    203.59653   -3286.5508   -2939.5693   -1135.9087    11789.372 
    1750    236.29186    203.50499   -3283.4998   -2932.0335   -1303.5201    11802.254 
    1800    238.50962    203.52066    -3284.022    -2929.257   -1382.0667    11814.147 
    1850    240.85632    203.41337   -3280.4458   -2922.1903   -1427.8569    11825.022 
    1900    224.47795    202.86659   -3262.2197   -2928.3258   -1035.0059    11834.883 
    1950    235.40598    203.04796   -3268.2654   -2918.1168    -1294.487    11843.879 
    2000    244.86318     203.2742   -3275.8067   -2911.5912   -1545.1428    11851.921 
    2050    234.36269    197.85776   -3261.9254   -2913.3287    -1271.778      11858.9 
    2100    242.77485    197.98823   -3266.2742    -2905.165   -1522.4994    11864.898 
    2150    240.52047    197.86233   -3262.0775   -2904.3216   -1491.9159    11869.843 
    2200    245.04162     197.8701   -3262.3368    -2897.856   -1532.5726    11873.724 
    2250    240.64841    197.69539   -3256.5131   -2898.5668   -1390.8216    11876.555 
    2300    240.16252    197.56622   -3252.2073   -2894.9837   -1267.3159    11878.404 
    2350    244.45765    197.65579   -3255.1931   -2891.5808   -1232.7504    11879.325 
    2400    236.86333    197.38664   -3246.2212   -2893.9049   -937.69603    11879.384 
    2450    258.29584    197.98716   -3266.2386   -2882.0431   -1447.8722    11878.666 
    2500    252.34641    197.69524   -3256.5079   -2881.1617   -1185.4238    11877.003 
    2550    254.22272    197.65549   -3255.1829   -2877.0459   -1045.5469    11874.471 
    2600    250.27804    197.43407   -3247.8023   -2875.5327   -793.38961    11871.172 
    2650    242.89595    197.21621   -3240.5403    -2879.251   -563.36217    11867.249 
    2700    249.40072    197.36626    -3245.542   -2874.5773   -681.78596    11862.806 
    2750    254.43255    197.40807   -3246.9357   -2868.4865   -658.90827    11857.812 
    2800    257.61606    197.41896   -3247.2988   -2864.1144   -619.58658    11852.275 
    2850    266.59956    197.61062   -3253.6872   -2857.1406   -691.15696    11846.191 
    2900    255.95424    197.25604   -3241.8679   -2861.1553   -229.57291    11839.584 
    2950    275.70009    197.80053   -3260.0175   -2849.9345   -568.38997    11832.622 
    3000     289.1114    198.06699   -3268.8996   -2838.8683   -688.11318    11825.172 
    3050    269.92612    202.42943   -3247.6477   -2846.1531   -24.621608    11817.218 
    3100     271.1549    202.42911   -3247.6371   -2844.3147    115.86736    11809.028 
    3150    267.83393    202.22134   -3240.7112   -2842.3285    393.30572    11800.724 
    3200    272.75742    202.33177   -3244.3924   -2838.6864    386.40832    11792.421 
    3250    277.12402    202.33428    -3244.476    -2832.275    446.82798    11784.144 
    3300    284.26949    202.49854   -3249.9514   -2827.1221    456.16672    11775.911 
    3350    282.12681    202.36776   -3245.5919   -2825.9496    821.55075    11767.737 
    3400    267.17577    201.91279   -3230.4262   -2833.0225    1396.7226    11759.804 
    3450     276.3493    202.11211   -3237.0702   -2826.0216    1302.8609    11752.355 
    3500    279.36234    202.14874   -3238.2914   -2822.7611    1374.0532    11745.399 
    3550    296.08493    202.61262   -3253.7539     -2813.35    1057.3925    11738.907 
    3600     290.2917    202.42322   -3247.4405   -2815.6536     1331.631    11732.764 
    3650    291.01626    202.36978   -3245.6593   -2812.7947    1470.1479    11727.054 
    3700    283.66734    202.11119   -3237.0396   -2815.1059    1821.3399    11721.879 
    3750    287.70578    202.08946   -3236.3153   -2808.3747    1887.1632    11717.388 
    3800     300.1503    202.36315   -3245.4383   -2798.9875    1610.0269    11713.584 
    3850    302.93127    202.37993   -3245.9977   -2795.4104    1623.9578    11710.363 
    3900    309.15839    202.49407   -3249.8023   -2789.9526    1561.5563    11707.699 
    3950     296.3087    202.12506    -3237.502   -2796.7653    1931.5857    11705.568 
    4000    294.32758    202.10301    -3236.767   -2798.9771    2041.5351    11704.129 
    4050    304.07754    197.21463   -3240.4878   -2788.1955    1970.8798    11703.431 
    4100     293.8724     196.8818   -3229.3932   -2792.2803    2301.7584    11703.455 
    4150    308.20282    197.16265   -3238.7549   -2780.3266    1988.8011    11704.288 
    4200    301.04672    197.02079   -3234.0265   -2786.2423    2092.0787     11705.84 
    4250    321.05872    197.51887   -3250.6289   -2773.0784    1586.7671    11708.082 
    4300    315.66169    197.41144   -3247.0479   -2777.5251    1787.0168    11710.807 
    4350    303.45104    197.01652    -3233.884   -2782.5235    2149.6311    11714.106 
    4400    304.98078    196.97509    -3232.503   -2778.8672    2134.1295    11718.145 
    4450    314.65282     197.1579   -3238.5968   -2770.5746    1998.3765    11722.903 
    4500    315.36264    197.15492   -3238.4972   -2769.4192     1872.823    11728.315 
    4550    321.14906    197.26798   -3242.2659   -2764.5811    1566.4432    11734.303 
    4600    305.26904    196.67881   -3222.6269   -2768.5623    1917.0644    11740.771 
    4650     313.8901    196.87657    -3229.219   -2762.3312    1702.7675    11747.807 
    4700    319.29927      197.092   -3236.4001   -2761.4666    1518.1969     11755.33 
    4750    306.96246    196.69218   -3223.0726   -2766.4892    1780.3873    11763.258 
    4800    300.80914    196.59638   -3219.8793   -2772.4485    1803.1382    11771.711 
    4850    303.42416    196.49957   -3216.6524    -2765.332    1728.6553    11780.712 
    4900    304.17469    196.57391   -3219.1304   -2766.6936    1562.7614    11790.186 
    4950    300.93748    196.48477   -3216.1591   -2768.5374    1476.4648    11800.077 
    5000    307.76893    196.60683   -3220.2275   -2762.4446    1211.5601     11810.32 
    5050    308.66193    201.62673   -3220.8909   -2761.7797    1129.9282    11820.824 
    5100    312.98476    201.69397   -3223.1325   -2757.5913    889.45939    11831.511 
    5150    299.65594    201.17955    -3205.985   -2760.2695      1115.17     11842.29 
    5200    286.93369    200.88688   -3196.2295   -2769.4373    1285.4023    11853.256 
    5250    306.37485    201.49527    -3216.509   -2760.7996    630.85281    11864.457 
    5300    310.18673    201.58913   -3219.6377   -2758.2585    396.64988    11875.624 
    5350    300.30715    201.21198   -3207.0659   -2760.3818    641.13262    11886.625 
    5400    310.25684    201.44915   -3214.9716   -2753.4881     374.2172    11897.539 
    5450    298.58868    201.03119   -3201.0398   -2756.9118    510.23442     11908.28 
    5500    308.23672    201.30717   -3210.2389   -2751.7601    140.66226    11918.851 
    5550    295.65458    200.91402   -3197.1339   -2757.3701     356.9383    11929.156 
    5600    302.94056      201.056   -3201.8665   -2751.2654    100.29292    11939.234 
    5650    302.97364    201.07884   -3202.6281   -2751.9777   -47.564714    11949.001 
    5700    291.91306    200.69937    -3189.979   -2755.7805    151.93256    11958.382 
    5750    290.47357    200.69491   -3189.8303   -2757.7729    87.105165    11967.459 
    5800    286.72298    200.63057   -3187.6856   -2761.2069    58.787807    11976.222 
    5850     303.9733    201.03773   -3201.2578   -2749.1206   -495.18959    11984.618 
    5900    306.14748    201.05499   -3201.8329   -2746.4618   -604.09193    11992.414 
    5950    295.72816    200.74961   -3191.6537   -2751.7805   -303.57949    11999.531 
    6000    290.50163    200.53351   -3184.4504   -2752.3512   -182.78105    12006.131 
    6050     301.7618    200.86691   -3195.5637   -2746.7159   -540.01636    12012.258 
    6100    308.40868    201.04584   -3201.5279   -2742.7933   -705.26065    12017.745 
    6150    292.15714    200.32241   -3177.4136    -2742.852   -267.83668    12022.556 
    6200    302.35559    200.65626   -3188.5419   -2738.8109   -608.86213    12026.843 
    6250    301.64909    200.59727   -3186.5757   -2737.8956   -568.59165    12030.482 
    6300    289.60115    200.28064   -3176.0213   -2745.2615   -261.82214    12033.512 
    6350    291.25833    200.33595   -3177.8649   -2744.6402   -339.39305    12036.064 
    6400     300.5448    200.57437   -3185.8122   -2738.7746   -559.09779    12038.113 
    6450    296.36163    200.36698   -3178.8995    -2738.084   -402.57256    12039.575 
    6500    299.29436    200.45513   -3181.8375   -2736.6598   -469.66499    12040.491 
    6550    290.64658     200.2964   -3176.5468    -2744.232   -356.99177    12040.874 
    6600    285.67248    200.09328    -3169.776   -2744.8599   -219.75831     12040.78 
    6650    293.53883    200.24682   -3174.8941   -2738.2773    -304.4982    12040.279 
    6700     304.6795     200.5994   -3186.6467   -2733.4591   -527.91051    12039.316 
    6750    308.19104    200.70905   -3190.3015   -2731.8907    -662.1539    12037.789 
    6800    303.86441    200.58235   -3186.0784   -2734.1031   -542.21866    12035.641 
    6850    301.60284    200.43178   -3181.0595   -2732.4481   -367.18832    12032.937 
    6900    310.68252    200.65122    -3188.374   -2726.2573   -473.40942     12029.75 
    6950    295.10498     200.2313   -3174.3767   -2735.4304    27.543106    12026.077 
    7000    297.16361    200.28983   -3176.3276   -2734.3192     122.9869    12022.132 
    7050    315.86685    195.73263   -3191.0878   -2721.2598   -300.31679    12017.943 
    7100    312.91776     195.6185   -3187.2832   -2721.8418   -230.07787     12013.34 
    7150     305.3367    195.46224   -3182.0746   -2727.9094    3.9662096    12008.356 
    7200    319.35655    195.83729   -3194.5762   -2719.5576   -292.98297    12003.063 
    7250    306.65582    195.42906   -3180.9687   -2724.8414    135.05452    11997.382 
    7300    301.46742    195.22451   -3174.1502   -2725.7403    344.19197    11991.495 
    7350    314.08021    195.55373   -3185.1242   -2717.9537    84.011731    11985.501 
    7400    312.20932    195.45577    -3181.859   -2717.4713    285.49102    11979.309 
    7450    316.91827    195.70068   -3190.0225   -2718.6306    201.82992     11972.98 
    7500    326.98387    196.04151   -3201.3836   -2715.0199    11.024548    11966.484 
    7550     320.2678    195.84198   -3194.7325   -2718.3584    306.28735    11959.745 
    7600     314.5781    195.75391   -3191.7971   -2723.8861    531.97391    11952.886 
    7650    308.31622    195.59946   -3186.6486   -2728.0516    791.44021    11946.044 
    7700    306.43439    195.55358   -3185.1193   -2729.3214    875.34935    11939.341 
    7750    323.61316    195.98565   -3199.5216   -2718.1715    456.10177    11932.807 
    7800    327.68614    196.09634   -3203.2112   -2715.8029    489.42577    11926.262 
    7850    327.38013    196.02817   -3200.9389   -2713.9857    577.60517    11919.684 
    7900     312.6146    195.60092   -3186.6972   -2721.7067    968.04244    11913.162 
    7950    319.22462    195.86519   -3195.5065    -2720.684      834.099     11906.84 
    8000    326.71275    196.16776   -3205.5921   -2719.6316    672.68514    11900.662 
    8050    317.53071    200.87111   -3195.7036   -2723.4007    1004.0312    11894.586 
    8100    306.64856    200.68687   -3189.5624   -2733.4459    1273.0482    11888.763 
    8150    318.05003    200.94041   -3198.0138   -2724.9384    941.29967    11883.316 
    8200    313.46956    200.85064   -3195.0212    -2728.759    1112.9265    11878.125 
    8250    305.04107    200.68966   -3189.6552   -2735.9297    1437.2584    11873.244 
    8300    314.53637    200.97421   -3199.1403   -2731.2913    1212.8925    11868.818 
    8350    318.41589    201.10195   -3203.3985    -2729.779    1110.6729    11864.777 
    8400    322.37351    201.26034   -3208.6779   -2729.1718     994.5281    11861.019 
    8450    320.66919    201.32713   -3210.9044   -2733.9333    1037.6294    11857.481 
    8500    307.14986     200.9788   -3199.2935   -2742.4313    1435.9302    11854.224 
    8550    317.80998    201.32729   -3210.9096   -2738.1913    1192.4088    11851.378 
    8600    305.44265    200.97655   -3199.2183   -2744.8955    1434.8939    11848.892 
    8650    310.69012     201.1563   -3205.2101   -2743.0821    1266.7546    11846.829 
    8700    309.60179    201.20262   -3206.7541   -2746.2449    1286.5611    11845.155 
    8750    306.41461    201.23031   -3207.6771   -2751.9086    1259.1958    11843.849 
    8800    306.02198    201.25744   -3208.5814   -2753.3969    1151.5994    11842.907 
    8850    307.91367    201.39755   -3213.2516   -2755.2534    1034.9192    11842.265 
    8900    300.72042    201.19685   -3206.5615   -2759.2627    1226.5349    11841.889 
    8950    311.34436    201.52233   -3217.4108   -2754.3097    948.90187    11841.825 
    9000    309.12397    201.47093   -3215.6975   -2755.8991    1002.4606    11841.977 
    9050    308.58132     201.4908   -3216.3601   -2757.3688    996.24892    11842.335 
    9100    298.46977    201.25819   -3208.6063   -2764.6552    1159.9822    11842.904 
    9150    282.73917    200.82658   -3194.2195   -2773.6664    1391.6322    11843.806 
    9200    310.78805    201.62882   -3220.9607    -2758.687    618.19112    11845.071 
    9250    289.24023    201.01676   -3200.5587   -2770.3358    1116.4982     11846.43 
    9300    299.59692    201.36469   -3212.1563   -2766.5286    814.63101    11848.024 
    9350    309.39301    201.70893    -3223.631   -2763.4324    485.56512    11849.749 
    9400    291.11344    201.26641   -3208.8803   -2775.8712    921.93359    11851.463 
    9450    285.57785    201.15161   -3205.0535   -2780.2781    1072.8867    11853.343 
    9500    304.34666    201.66796   -3222.2652   -2769.5726    542.30709     11855.46 
    9550    306.93941    201.76796   -3225.5987   -2769.0495    387.17227    11857.578 
    9600    305.89499    201.82221   -3227.4069   -2772.4113    318.66752     11859.58 
    9650    302.90616    201.74711   -3224.9037   -2774.3537    342.06686    11861.459 
    9700     287.8755    201.41239   -3213.7462   -2785.5532    623.84964    11863.233 
    9750    292.44888    201.61968    -3220.656   -2785.6605    474.69714    11865.008 
    9800     296.4378      201.785   -3226.1667   -2785.2379    286.75065    11866.734 
    9850    292.42722    201.60269   -3220.0897   -2785.1264    339.17545    11868.324 
    9900    280.63587    201.27565   -3209.1885   -2791.7639    612.30533    11869.823 
    9950    297.36365    201.75389   -3225.1296   -2782.8237    206.04799    11871.308 
   10000    295.22546    201.78891    -3226.297   -2787.1715    252.52039    11872.623 
   10050    285.90071    201.39758   -3213.2528   -2787.9971    524.84126    11873.798 
   10100    284.99927    201.36293   -3212.0977   -2788.1829    501.52538    11874.955 
   10150    284.99066    201.43982   -3214.6605   -2790.7585    500.32949    11876.081 
   10200    288.25891    201.54166   -3218.0552    -2789.292    351.34792     11877.18 
   10250    292.15888    201.70096   -3223.3654   -2788.8012    185.60699    11878.164 
   10300    267.85215    200.93002   -3197.6674   -2799.2576     834.8596    11879.014 
   10350    282.10944    201.38093   -3212.6977   -2793.0813     442.8607    11879.966 
   10400    289.94092    201.66103   -3222.0342   -2790.7691    86.801561     11880.88 
   10450    288.63273    201.64977   -3221.6589   -2792.3396     72.67539    11881.577 
   10500    290.85247    201.75476   -3225.1586   -2792.5376    23.321299     11882.02 
   10550    277.53728    201.36854   -3212.2846   -2799.4689     384.0623     11882.23 
   10600     271.3244    201.21617   -3207.2058   -2803.6313    559.85016     11882.36 
   10650    281.08218    201.48329   -3216.1096   -2798.0211    318.14542    11882.486 
   10700    286.64792    201.62587   -3220.8624   -2794.4954    175.25312     11882.52 
   10750    289.93858    201.63094   -3221.0314   -2789.7698    152.20057    11882.369 
   10800    287.91508    201.57773   -3219.2577   -2791.0059    303.58867    11882.022 
   10850    287.80462    201.61547   -3220.5156   -2792.4281    250.24644    11881.549 
   10900    293.97585    201.74522   -3224.8408    -2787.574   -4.0756911     11880.92 
   10950    297.46954     201.7577   -3225.2566   -2782.7932   -64.587164    11880.017 
   11000    290.81038    201.55196   -3218.3988   -2785.8404    216.85448    11878.815 
   11050    291.97289    201.57947   -3219.3157   -2785.0282    297.93062    11877.439 
   11100    297.59364    201.72355   -3224.1185   -2781.4705    180.31221    11875.932 
   11150     288.8658    201.48774   -3216.2579   -2786.5919    410.62718    11874.259 
   11200    291.81428    201.52619   -3217.5397   -2783.4881    375.65192    11872.498 
   11250    288.63694    201.45019   -3215.0062   -2785.6806    484.53295    11870.672 
   11300    294.31088    201.61818   -3220.6059   -2782.8407    393.04739    11868.821 
   11350    301.91449    201.80708   -3226.9027   -2777.8278    258.32079    11866.889 
   11400     286.6599    201.33445   -3211.1484   -2784.7636    703.87122    11864.851 
   11450    297.50885    201.61919   -3220.6396   -2778.1177    416.97729     11862.86 
   11500    289.75363    201.36506   -3212.1685    -2781.182    682.92582    11860.833 
   11550    282.35529     201.0703   -3202.3434   -2782.3613    1005.5715    11858.894 
   11600    291.91196    201.36722   -3212.2405   -2778.0436     765.3099    11857.169 
   11650    304.78128    201.73071   -3224.3569   -2771.0179    439.15723    11855.557 
   11700    309.92723    201.81524   -3227.1745   -2766.1813    333.80822    11853.889 
   11750    300.60389    201.63348   -3221.1161   -2773.9906    591.25515    11852.127 
   11800    297.25477    201.51307   -3217.1024   -2774.9584    745.85535    11850.379 
   11850    301.67637    201.49206    -3216.402   -2767.6812    715.08012    11848.727 
   11900    290.54689    201.13921   -3204.6403   -2772.4738    1100.0152    11847.192 
   11950    304.33371    201.52491    -3217.497   -2764.8237    832.81016    11845.882 
   12000    298.80152     201.2766   -3209.2201   -2764.7755    1019.5986    11844.758 
   12050    298.06578    201.22775   -3207.5916   -2764.2413    1037.8765    11843.858 
   12100    305.38425    201.39266   -3213.0886   -2758.8527    982.15534    11843.188 
   12150    297.26068    201.16309   -3205.4364   -2763.2837    1227.9759    11842.749 
   12200    306.07474    201.46913   -3215.6377   -2760.3747    1007.4929    11842.623 
   12250     301.8159    201.24205   -3208.0682   -2759.1399    1225.0808    11842.758 
   12300    318.85447    201.66946   -3222.3154   -2748.0435    895.69548      11843.2 
   12350    309.96716    201.39281   -3213.0937    -2752.041    1033.2516    11843.835 
   12400    305.50734      201.331   -3211.0332   -2756.6142    1102.7899     11844.68 
   12450    291.94211    200.90393   -3196.7976   -2762.5558    1471.9316    11845.816 
   12500    329.67593    201.89413   -3229.8042   -2739.4362    572.48266    11847.338 
   12550    308.19115    201.24185   -3208.0615   -2749.6506    1102.7805    11848.939 
   12600    313.86117    201.35216   -3211.7387    -2744.894    914.60629    11850.735 
   12650    315.45896    201.38928   -3212.9759   -2743.7546    866.52415    11852.709 
   12700    288.81046    200.61206   -3187.0688   -2757.4851    1629.6523    11854.869 
   12750    311.25432    201.28279   -3209.4262    -2746.459    994.23108    11857.504 
   12800    305.20533    201.17972   -3205.9907   -2752.0209    1062.4072    11860.416 
   12850    301.79003    201.10635   -3203.5449   -2754.6551    1127.0631    11863.557 
   12900    305.19945    201.08736   -3202.9121   -2748.9511    1034.9473    11866.973 
   12950    308.68429    201.15821   -3205.2735    -2746.129    960.68136     11870.62 
   13000    308.93696    201.22795   -3207.5984   -2748.0781    907.80778    11874.464 
   13050    305.50979    206.06788   -3202.2626   -2747.8399    927.87224    11878.509 
   13100    315.98996     206.3504   -3211.6801    -2741.669    655.52834    11882.719 
   13150    300.45577    205.97586   -3199.1953   -2752.2901    1038.2868    11887.015 
   13200    296.56531    205.78555   -3192.8515   -2751.7331    1166.4888    11891.552 
   13250    286.19121    205.43655   -3181.2183   -2755.5305    1339.4425    11896.423 
   13300    307.74696    206.00303   -3200.1012   -2742.3509    676.32325    11901.665 
   13350    304.19669    205.98556   -3199.5187   -2747.0492    702.25372    11907.003 
   13400    304.78881    205.95457   -3198.4857   -2745.1355     749.9204    11912.401 
   13450    295.84237    205.65181   -3188.3936   -2748.3505    894.25406    11917.927 
   13500    316.53651    206.21242   -3207.0805   -2736.2565    234.40371    11923.572 
   13550    309.45997    206.07326    -3202.442   -2742.1438    330.89556    11929.091 
   13600    303.81513    205.90899   -3196.9663   -2745.0643    427.74364     11934.49 
   13650    302.81929    205.89571   -3196.5237   -2746.1029    301.64141    11939.821 
   13700    297.60036    205.81212   -3193.7373   -2751.0794    384.49584    11945.021 
   13750    285.75884    205.51905   -3183.9684   -2758.9237      675.596    11950.159 
   13800    303.76812    205.98295   -3199.4318   -2747.5997    139.09953    11955.343 
   13850    291.40663     205.5916   -3186.3866   -2752.9413    439.07953    11960.361 
   13900    282.20413     205.2775   -3175.9168   -2756.1595    622.61739     11965.32 
   13950    299.82487    205.74878   -3191.6261   -2745.6593    56.120718    11970.277 
   14000    295.45139    205.60914   -3186.9713   -2747.5097    89.768865    11975.024 
   14050    313.39165    201.16207   -3205.4023   -2739.2559   -454.62633    11979.501 
   14100    314.03311    201.08005   -3202.6684    -2735.568   -482.26506    11983.457 
   14150    287.27528    200.26176   -3175.3919   -2748.0917    244.22912    11986.885 
   14200    304.14952    200.82799   -3194.2662   -2741.8669   -165.16461    11990.073 
   14250    303.45949    200.77845   -3192.6151   -2741.2421   -195.48422     11992.91 
   14300    314.40609    201.09698   -3203.2327   -2735.5775   -486.98977    11995.314 
   14350    299.00639    200.60628    -3186.876   -2742.1266   -113.64826    11997.208 
   14400    297.53099    200.58711    -3186.237   -2743.6822   -107.00244    11998.723 
   14450    300.87291    200.72311   -3190.7703   -2743.2446   -129.48411    11999.882 
   14500    296.16937    200.47663   -3182.5544   -2742.0249    86.435893    12000.699 
   14550    300.42401    200.55199   -3185.0664   -2738.2085   -52.704939    12001.243 
   14600    302.99362    200.65182    -3188.394   -2737.7139   -220.38249    12001.463 
   14650    308.02803    200.82134   -3194.0447   -2735.8764   -429.17499    12001.256 
   14700    298.26406    200.48706   -3182.9019   -2739.2567    -116.4051    12000.552 
   14750    297.69354    200.39896   -3179.9654   -2737.1688    -45.95418    11999.482 
   14800    310.20586    200.75228   -3191.7426   -2730.3349   -371.29964    11998.058 
   14850    314.24196     200.8657   -3195.5232   -2728.1121   -449.88761    11996.151 
   14900    296.22723    200.35779    -3178.593   -2737.9775    90.440766    11993.742 
   14950    303.91806    200.61638   -3187.2128   -2735.1577    22.979525    11991.045 
   15000    296.78694    200.37385   -3179.1283   -2737.6802    278.90547     11988.09 
   15050    292.12408    200.26719   -3175.5732   -2741.0607     384.7034    11984.987 
   15100    293.46966    200.34194   -3178.0646   -2741.5507     350.4353    11981.802 
   15150    299.28543     200.5052   -3183.5067   -2738.3423    279.64781    11978.509 
   15200    306.61521    200.74059   -3191.3531   -2735.2862    44.918401    11975.071 
   15250    324.37576    201.20649   -3206.8832   -2724.3988   -347.17579    11971.335 
   15300    295.55755    200.29412   -3176.4706   -2736.8512    507.88733    11967.203 
   15350    305.49148    200.63679   -3187.8929   -2733.4975    261.34239    11962.968 
   15400    316.41445    201.01033   -3200.3445    -2729.702    24.329914    11958.565 
   15450    299.86874    200.48139    -3182.713    -2736.681    550.66749    11953.937 
   15500    316.20586    200.95829   -3198.6096   -2728.2774    216.37808     11949.25 
   15550    299.06323    200.46452   -3182.1506   -2737.3167    745.90287    11944.435 
   15600     298.9425    200.45867   -3181.9557   -2737.3014    872.36852    11939.677 
   15650    302.38362    200.59828   -3186.6094   -2736.8367    816.91285    11935.077 
   15700    303.25506    200.57774   -3185.9246   -2734.8557     824.5069    11930.641 
   15750    319.68104    201.08185   -3202.7282   -2727.2269    498.42765    11926.314 
   15800    303.48055    200.54599   -3184.8664   -2733.4621    1030.9739    11922.002 
   15850    310.56427    200.78139   -3192.7129    -2730.772    843.28074     11917.88 
   15900    306.57594    200.66751    -3188.917   -2732.9085    919.02495    11913.934 
   15950    316.97664    201.04785   -3201.5951   -2730.1163    663.78096    11910.151 
   16000    313.76672     200.9137   -3197.1232    -2730.419     833.3077    11906.432 
   16050    295.73245    205.37276   -3179.0919   -2739.2123    1376.8131    11902.865 
   16100    301.95282    205.60056   -3186.6855   -2737.5535    1234.8226    11899.701 
   16150    315.66129    205.96857   -3198.9525   -2729.4302    892.48028    11896.909 
   16200    308.85708    205.77024   -3192.3413   -2732.9398    1047.7301    11894.325 
   16250    324.00782    206.32244    -3210.748   -2728.8109    562.72974    11891.944 
   16300    316.15282    206.04348   -3201.4494    -2731.196    790.12746    11889.604 
   16350    300.02811    205.60096   -3186.6987   -2740.4296    1267.7788    11887.396 
   16400    287.99302    205.28026   -3176.0086   -2747.6408    1639.8542    11885.571 
   16450    310.66574    206.02877   -3200.9591   -2738.8673    1044.9167    11884.274 
   16500    311.63251     206.0688   -3202.2934   -2738.7636    1023.7232    11883.291 
   16550    313.34452    206.06766   -3202.2552    -2736.179    934.29414    11882.555 
   16600    318.48011     206.2546   -3208.4866   -2734.7716    804.33497    11882.008 
   16650     289.7189    205.36593   -3178.8643   -2747.9294    1624.8018    11881.655 
   16700    316.95034    206.17647   -3205.8822   -2734.4426     829.8148    11881.767 
   16750    307.92202    205.94455   -3198.1516   -2740.1409    918.99516    11882.072 
   16800    299.40407    205.72906   -3190.9686   -2745.6277     1068.214    11882.569 
   16850    321.81466    206.47678   -3215.8927   -2737.2178    398.49877    11883.286 
   16900    301.19645    205.97129   -3199.0429    -2751.036    922.82405    11883.997 
   16950    306.59113    206.15732   -3205.2439   -2749.2129    777.77757    11884.873 
   17000    299.51633    205.94713   -3198.2375   -2752.7297    849.90676    11885.895 
   17050     308.7031    201.28341   -3209.4471   -2750.2747    549.51002    11887.044 
   17100    308.83136    201.30363   -3210.1211   -2750.7579    491.89154    11888.194 
   17150    300.46646     201.0782   -3202.6066   -2755.6855    708.65046    11889.304 
   17200     298.5551     200.9937   -3199.7898   -2755.7118    762.04154    11890.474 
   17250     291.7206    200.90256    -3196.752   -2762.8397    765.91003    11891.755 
   17300    298.66515    201.17016   -3205.6721   -2761.4303    483.86558    11893.135 
   17350    305.10237    201.37179   -3212.3932   -2758.5765     316.2365     11894.47 
   17400    286.71502    200.81718    -3193.906   -2767.4391    766.10164    11895.705 
   17450    295.69686    201.20819   -3206.9395   -2767.1129    447.21227    11897.003 
   17500    297.43904    201.22303   -3207.4343   -2765.0163    360.28084    11898.278 
   17550    308.70848    201.62933   -3220.9777   -2761.7972   -3.0566648    11899.429 
   17600    306.76018    201.61667   -3220.5557   -2764.2732     37.64389    11900.297 
   17650    277.92964     200.8199   -3193.9966   -2780.5973    780.67982    11900.951 
   17700    294.82072    201.28136   -3209.3787   -2770.8552    333.27599    11901.647 
   17750    280.22351    200.90116   -3196.7052    -2779.894    671.95237    11902.287 
   17800    287.05465    201.06712   -3202.2374   -2775.2653    573.83581    11902.973 
   17850    298.90381    201.46427   -3215.4756   -2770.8788    201.08187    11903.677 
   17900    297.86947    201.42388   -3214.1293    -2771.071    109.50809    11904.212 
   17950    295.45298     201.4436   -3214.7868   -2775.3229    53.700797    11904.505 
   18000    294.16039    201.44444   -3214.8146   -2777.2734    40.781695    11904.542 
   18050    291.64063    196.35321   -3211.7736   -2777.9802    152.42825    11904.316 
   18100    283.35078     196.1113   -3203.7099   -2782.2471     420.5845    11903.894 
   18150    293.86667    196.37702   -3212.5674   -2775.4631    183.34048    11903.353 
   18200    298.01589    196.48741   -3216.2471    -2772.971    23.335336    11902.607 
   18250    304.84513    196.75128   -3225.0428   -2771.6088   -180.50069    11901.562 
   18300    296.20832    196.51179   -3217.0597   -2776.4723    91.712204    11900.142 
   18350    293.77011    196.41667   -3213.8891   -2776.9283    205.76501    11898.476 
   18400    309.31438    196.78445   -3226.1482   -2766.0665   -170.59676    11896.581 
   18450    292.40626    196.37744   -3212.5812    -2777.649    274.66974    11894.325 
   18500    285.23781    196.16269   -3205.4228   -2781.1532    493.15405    11891.905 
   18550    291.56602    196.43891   -3214.6302   -2780.9478    278.29681    11889.423 
   18600    299.98288    196.60205   -3220.0683   -2773.8665    137.12625    11886.792 
   18650    293.53781    196.43683    -3214.561   -2777.9458    292.74739    11883.959 
   18700    291.11191    196.40783   -3213.5944   -2780.5875    415.68989    11880.976 
   18750    296.42497    196.60386   -3220.1287    -2779.219    389.58451      11877.9 
   18800    305.67128    196.82404   -3227.4679    -2772.805    153.05782    11874.718 
   18850    300.92243    196.73814   -3224.6045   -2777.0052    184.09737     11871.32 
   18900    296.04425    196.56186   -3218.7287   -2778.3853      362.699    11867.708 
   18950     294.3675     196.5295   -3217.6501   -2779.8007    498.18847    11863.982 
   19000    317.35382     197.1562     -3238.54   -2766.5002   -30.227057    11860.174 
   19050    299.25925    196.67652   -3222.5505   -2777.4251    467.85407    11856.097 
   19100    292.59298    196.60222   -3220.0741   -2784.8642    609.16125    11851.932 
   19150    302.48351    196.86566   -3228.8554   -2778.9341    394.60713    11847.785 
   19200    297.36999    196.72166   -3224.0553     -2781.74    655.89391    11843.564 
   19250    285.47348    196.36251   -3212.0838   -2787.4636    1140.7857    11839.385 
   19300      292.925    196.49958   -3216.6527    -2780.949    983.23544    11835.475 
   19350    293.67731    196.57043   -3219.0143   -2782.1915    959.92972    11831.782 
   19400    297.63556    196.61546   -3220.5152   -2777.8049    988.62172    11828.283 
   19450    304.56225    196.79087   -3226.3622    -2773.349    838.19435    11824.975 
   19500    305.53738    196.91096   -3230.3654   -2775.9017    770.58541    11821.785 
   19550    305.37218     196.9197   -3230.6566   -2776.4387    802.37444    11818.684 
   19600    307.36067    196.98422   -3232.8072   -2775.6315    788.38625    11815.681 
   19650    292.66117    196.54087   -3218.0289   -2782.7176    1158.4566     11812.81 
   19700    310.71119    197.12336   -3237.4454    -2775.286    688.76079    11810.168 
   19750    299.00641      196.737   -3224.5668   -2779.8175    1061.5468    11807.616 
   19800     280.9423     196.2235   -3207.4501   -2789.5697    1625.3386    11805.316 
   19850    307.96611     196.9635   -3232.1167   -2774.0404    910.84456    11803.487 
   19900    305.24759    196.80657   -3226.8858   -2772.8531    1001.9109    11801.869 
   19950    294.49021     196.4151   -3213.8366   -2775.8048    1354.6073    11800.462 
   20000    296.07528    196.55331   -3218.4435    -2778.054     1280.719    11799.431 
   20050    296.91592    196.63743   -3221.2478   -2779.6078    1261.1651    11798.755 
   20100    300.95765    196.72778   -3224.2594   -2776.6077    1224.2293    11798.427 
   20150     320.5793    197.30235   -3243.4115   -2766.5741     686.5107    11798.385 
   20200    304.18113    196.79981   -3226.6603   -2774.2139    1126.1372     11798.42 
   20250    298.94626    196.70437   -3223.4789    -2778.819    1296.9512    11798.713 
   20300    312.92704    197.14395   -3238.1317   -2772.6765    865.15315    11799.327 
   20350     281.4224    196.18658   -3206.2192   -2787.6247    1720.6178    11800.149 
   20400    295.46884    196.62306   -3220.7687   -2781.2812    1311.5333    11801.483 
   20450    321.01508     197.3052   -3243.5067   -2766.0211    561.82595    11803.188 
   20500    301.80078    196.79209    -3226.403   -2777.4972    1071.3816     11804.92 
   20550    289.60228    196.42753    -3214.251   -2783.4895    1420.8268    11806.885 
   20600    313.79262     197.1975   -3239.9165   -2773.1738    690.66529    11809.238 
   20650    301.14075    196.73543   -3224.5143   -2776.5902    953.53736      11811.7 
   20700    290.44616    196.40711   -3213.5705   -2781.5538    1212.4295    11814.327 
   20750    306.32022    196.91003   -3230.3344   -2774.7063    740.61161    11817.246 
   20800    311.39606    197.07333   -3235.7777   -2772.5997     535.6358    11820.273 
   20850    307.49511    196.90836   -3230.2787   -2772.9031    688.92659    11823.282 
   20900    298.66872    196.69125   -3223.0417   -2778.7946    919.10862    11826.352 
   20950    291.69716    196.46568   -3215.5228   -2781.6454    1032.8125    11829.593 
   21000     299.0212    196.68879   -3222.9597   -2778.1883    792.39482    11833.054 
   21050     311.5968    197.02199   -3234.0664   -2770.5898     413.2486    11836.614 
   21100    308.08791    196.91702   -3230.5674     -2772.31    410.53585    11840.096 
   21150    302.40655    196.74605   -3224.8684   -2775.0616    532.64897    11843.481 
   21200    290.39636    196.32784   -3210.9281   -2778.9855    923.65066    11846.859 
   21250    288.08377    196.25548    -3208.516   -2780.0132     946.4098    11850.415 
   21300    310.42681    196.93785   -3231.2616   -2769.5253    281.52013     11854.12 
   21350    302.48768    196.69971   -3223.3237   -2773.3962    454.14008    11857.716 
   21400    288.87273    196.37556   -3212.5186   -2782.8423    706.15617    11861.249 
   21450    307.18185    196.88899    -3229.633   -2772.7232    145.56345     11864.81 
   21500    297.49704    196.65081   -3221.6937   -2779.1894    318.36696     11868.18 
   21550    287.72416    196.32798   -3210.9327   -2782.9648    595.96277    11871.419 
   21600    291.42572    196.38156   -3212.7188   -2779.2451    607.95198    11874.674 
   21650    292.38841    196.36179   -3212.0596    -2777.154    543.21982    11877.947 
   21700    293.80683    196.41325    -3213.775   -2776.7596    347.25366    11881.202 
   21750    289.27294    196.31728    -3210.576   -2780.3044    356.81964    11884.344 
   21800    298.32263    196.56138   -3218.7126   -2774.9803    93.167483    11887.354 
   21850    303.60412    196.63977   -3221.3257   -2769.7375    6.3032675    11890.128 
   21900    303.99533      196.666   -3222.1999   -2770.0298    33.521057    11892.618 
   21950     302.0503    196.67551   -3222.5171   -2773.2402    139.02127    11894.824 
   22000    289.54297    196.35311   -3211.7704   -2781.0972    477.62695    11896.807 
   22050    297.25978    196.47482   -3215.8272   -2773.6758    264.64706    11898.705 
   22100    289.11984    196.32951   -3210.9838   -2780.9399     347.1539    11900.456 
   22150    283.22038    196.18533   -3206.1776   -2784.9088    413.87921    11902.118 
   22200    310.75337    196.92839   -3230.9464   -2768.7244   -352.55036    11903.654 
   22250    299.83681    196.46873   -3215.6242   -2769.6397    6.7229741    11904.765 
   22300    298.42592    196.36655   -3212.2183   -2768.3324     124.9362     11905.56 
   22350    294.12334    196.30551   -3210.1836   -2772.6974    205.74967    11906.121 
   22400     300.9992    196.40439   -3213.4797   -2765.7662    124.29789    11906.476 
   22450    302.01481    196.52098   -3217.3661    -2768.142    11.758729    11906.581 
   22500      296.574    196.42545   -3214.1816   -2773.0502    78.654055    11906.395 
   22550     288.6235    196.15761   -3205.2537   -2775.9481    282.05011    11905.954 
   22600    293.18898    196.22977   -3207.6589   -2771.5625    244.30652    11905.351 
   22650    304.14207    196.50253    -3216.751   -2764.3627    6.1258097     11904.56 
   22700    299.19567    196.35409   -3211.8029    -2766.772    95.890654    11903.489 
   22750    302.17853    196.52775   -3217.5916    -2768.124    80.030695    11902.146 
   22800    290.81542    196.22307   -3207.4355   -2774.8696    413.17876    11900.564 
   22850    300.25301    196.52443   -3217.4811   -2770.8775    196.05736    11898.872 
   22900    306.66361    196.70496   -3223.4985   -2767.3597     68.10748    11896.977 
   22950    307.30551     196.6187   -3220.6233   -2763.5297    109.07811    11894.819 
   23000    299.76297    196.35651   -3211.8836   -2766.0089    379.49635    11892.419 
   23050    301.06778    196.34896   -3211.6319   -2763.8164    473.92529    11889.884 
   23100    288.27495    195.95286   -3198.4288   -2769.6417    839.76236    11887.308 
   23150    305.81842    196.48836   -3216.2787    -2761.397    432.84546    11884.803 
   23200    306.15569    196.45768   -3215.2562   -2759.8728    440.55861    11882.251 
   23250    306.87581    196.48214   -3216.0712   -2759.6167    446.95553    11879.603 
   23300    290.11146    196.01231   -3200.4102   -2768.8914    1001.7947     11876.91 
   23350    310.40442    196.61135   -3220.3785   -2758.6754    517.28993    11874.371 
   23400    299.49511    196.26766   -3208.9219   -2763.4457    821.19544    11871.837 
   23450    295.14021     196.1708   -3205.6932   -2766.6945    1016.9445    11869.413 
   23500    305.68051    196.41242   -3213.7473   -2759.0707    815.84892    11867.195 
   23550    315.96816    196.69481   -3223.1604   -2753.1817    552.56388     11865.06 
   23600    302.06136    196.26781    -3208.927   -2759.6337     874.4454    11862.933 
   23650    313.28857    196.63082   -3221.0274   -2755.0344    579.14326    11860.911 
   23700     302.4901    196.22891   -3207.6302   -2757.6991    994.10471    11858.913 
   23750     317.0134    196.61107   -3220.3689   -2748.8355     723.9968    11857.058 
   23800    301.66489     196.2361     -3207.87   -2759.1663    1009.4319    11855.308 
   23850    313.04832    196.54011   -3218.0036   -2752.3679    705.98525    11853.716 
   23900    308.19803    196.36719   -3212.2398   -2753.8186    873.12823    11852.196 
   23950    308.23338    196.31047    -3210.349   -2751.8752    996.25392    11850.806 
   24000     311.5724    196.39857   -3213.2857   -2749.8454    951.97262    11849.596 
   24050    302.27365    196.16612   -3205.5375   -2755.9283    1176.7203    11848.574 
   24100    317.83408    196.57752   -3219.2507   -2746.4966    874.94961     11847.81 
   24150    316.03852    196.50303   -3216.7676   -2746.6842    946.75169    11847.223 
   24200     311.9918    196.33738   -3211.2458   -2747.1817    1031.5925    11846.807 
   24250    307.31092    196.19073   -3206.3577    -2749.256    1124.2572    11846.602 
   24300    308.48798     196.2596   -3208.6534   -2749.8009    1048.1879    11846.643 
   24350    302.87947     196.1829   -3206.0965   -2755.5863    1145.5425    11846.921 
   24400    310.86019    196.33362   -3211.1208   -2748.7398    1013.3461    11847.473 
   24450    317.57502    196.51584   -3217.1948    -2744.826    869.76064     11848.23 
   24500    310.87758    196.31267   -3210.4225   -2748.0156    1024.0226    11849.125 
   24550     307.2743    196.24918    -3208.306   -2751.2588    1109.7032    11850.231 
   24600    313.51161    196.42334   -3214.1114   -2747.7867    1005.0929    11851.575 
   24650    299.44021    196.01057   -3200.3525   -2754.9578    1386.1921    11853.164 
   24700    306.65825    196.11701   -3203.9004   -2747.7694    1187.6627    11855.138 
   24750    307.95297     196.3006     -3210.02   -2751.9632    939.22769    11857.415 
   24800    314.38704     196.3952   -3213.1735   -2745.5466    848.64878    11859.878 
   24850    303.59478    196.10414   -3203.4712    -2751.897    1105.1768    11862.487 
   24900    309.86959    196.21801   -3207.2669   -2746.3594    881.12245    11865.334 
   24950    316.27461    196.40545   -3213.5149   -2743.0804    672.48967     11868.33 
   25000    306.52376    196.23479   -3207.8263   -2751.8955    794.03179    11871.371 
   25050    312.86336    196.41411   -3213.8036   -2748.4431    564.09917    11874.497 
   25100    296.62097    195.97626   -3199.2086   -2758.0074    914.39645    11877.655 
   25150    316.66212    196.65123   -3221.7077   -2750.6968     363.5195    11880.915 
   25200    300.30803    196.21124   -3207.0414    -2760.356    615.74925    11884.119 
   25250    313.17667    196.57233   -3219.0776    -2753.251    228.29115    11887.289 
   25300    300.13394    196.22728    -3207.576   -2761.1495    546.48807    11890.315 
   25350    282.31233    195.69646    -3189.882   -2769.9638    1042.8853    11893.335 
   25400    303.67343    196.39161   -3213.0536   -2761.3624    382.15372    11896.529 
   25450    301.52104    196.37924   -3212.6415   -2764.1518    315.89863    11899.668 
   25500    296.53554    196.32489   -3210.8296   -2769.7555    333.97951    11902.681 
   25550     296.5817    196.35473   -3211.8244   -2770.6816    154.04447    11905.564 
   25600    297.74178    196.48889   -3216.2965   -2773.4282    3.2179313    11908.231 
   25650    299.67121     196.4603   -3215.3434   -2769.6052   -95.463424    11910.619 
   25700    294.03659    196.32194   -3210.7313   -2773.3742    32.480774    11912.675 
   25750    297.62021    196.46363   -3215.4543   -2772.7668   -15.426286    11914.435 
   25800    299.63953    196.54824   -3218.2746   -2772.5835    -99.49139    11915.895 
   25850     289.7776     196.2847   -3209.4899   -2778.4677    29.183963     11917.01 
   25900    289.86786    196.35664   -3211.8879   -2780.7314   -91.307407     11917.83 
   25950    301.06299     196.7288   -3224.2932   -2776.4848   -461.45924     11918.29 
   26000    301.30068    196.76473   -3225.4909    -2777.329   -473.12744    11918.225 
   26050    282.30089    201.24619   -3208.2064   -2788.3052    18.840904    11917.658 
   26100    285.36994     201.4013   -3213.3768   -2788.9107   -128.72877    11916.777 
   26150    283.16299    201.40696   -3213.5655    -2792.382   -173.53486     11915.56 
   26200    280.56529    201.33444   -3211.1481   -2793.8285   -32.094825    11913.997 
   26250    293.35189    201.75615    -3225.205   -2788.8663   -336.99849    11912.101 
   26300    291.36208    201.70205   -3223.4015   -2790.0225   -292.24639     11909.76 
   26350    281.34307    201.45139   -3215.0463   -2796.5698    24.833583     11907.01 
   26400    288.57675    201.64056   -3221.3519   -2792.1159   -80.752234    11903.961 
   26450    276.71553    201.30968   -3210.3226   -2798.7292    231.05841    11900.614 
   26500    283.07987    201.44287   -3214.7625   -2793.7026     68.60948    11897.069 
   26550    287.77961    201.64993   -3221.6644    -2793.614    -78.60187    11893.282 
   26600    299.97918    202.06584   -3235.5281   -2789.3318   -426.16527    11889.159 
   26650    296.38517    201.94473   -3231.4911   -2790.6406    -199.8244    11884.524 
   26700    282.03146    201.57749   -3219.2496   -2799.7492    272.31951    11879.508 
   26750    279.01883    201.47721   -3215.9071   -2800.8877    496.57973    11874.325 
   26800    274.87037     201.3347   -3211.1566   -2802.3077    757.04073    11869.123 
   26850    305.34709    202.12653   -3237.5509   -2783.3703   -4.2296122    11863.969 
   26900    291.07157    201.71333   -3223.7776   -2790.8307    363.93044    11858.582 
   26950    292.97304    201.78491   -3226.1638   -2790.3886    347.23923     11853.06 
   27000    286.10579    201.59226   -3219.7419   -2794.1813     617.9609    11847.435 
   27050    272.62832    201.17145   -3205.7151   -2800.2012    1117.5536    11841.849 
   27100    292.98119    201.76102   -3225.3672   -2789.5799    645.24366    11836.499 
   27150    291.08487    201.63532   -3221.1775   -2788.2108    772.33327    11831.231 
   27200    289.47284    201.56772   -3218.9241   -2788.3552    927.82293    11826.073 
   27250    300.61217    201.91308    -3230.436   -2783.2981    710.98804    11821.077 
   27300    285.34467    201.54071   -3218.0236    -2793.595    1154.4943    11816.192 
   27350    297.30348    201.82199   -3227.3995   -2785.1831    962.11642    11811.568 
   27400    302.73493    201.94236   -3231.4122   -2781.1169    902.68741    11807.153 
   27450    302.12451    201.94065    -3231.355   -2781.9677    937.87193    11802.912 
   27500    307.23112     202.1665   -3238.8833   -2781.9003    785.16446     11798.84 
   27550     293.6249    201.78363   -3226.1209   -2789.3761    1188.8925    11794.891 
   27600     279.6456    201.39766   -3213.2553   -2797.3037    1597.6497    11791.258 
   27650    298.27383    201.92803   -3230.9343   -2787.2745    1156.8384     11788.12 
   27700    301.01782     201.8627   -3228.7568   -2781.0156    1248.4603    11785.311 
   27750    283.97989    201.36588   -3212.1959   -2789.7974    1757.6953    11782.884 
   27800    312.69421    202.16529   -3238.8432   -2773.7342    1024.8046    11780.993 
   27850    297.31158    201.77933   -3225.9776   -2783.7492    1470.4281    11779.399 
   27900    302.45444     201.9081   -3230.2699   -2780.3919    1451.8423     11778.22 
   27950    289.46586    201.45368   -3215.1226   -2784.5641    1836.7335    11777.516 
   28000    300.08788    201.67935    -3222.645    -2776.287     1606.906    11777.421 
   28050     294.3252     201.5472   -3218.2401   -2780.4537    1719.9892    11777.889 
   28100    304.77917    201.75927   -3225.3092   -2771.9732    1419.1862    11778.917 
   28150       308.76    201.87205   -3229.0685   -2769.8114    1310.7336    11780.401 
   28200    310.23902    201.91851   -3230.6169   -2769.1599    1296.6285    11782.266 
   28250     297.0368    201.56605   -3218.8683   -2777.0486    1590.2801    11784.515 
   28300    301.52923    201.59935   -3219.9782   -2771.4763    1409.0947    11787.273 
   28350    293.83801    201.35766   -3211.9221   -2774.8603    1592.5088    11790.503 
   28400    314.80854    201.97137    -3232.379   -2764.1252    1070.9178     11794.22 
   28450    294.71145    201.32635   -3210.8783   -2772.5174    1638.1498    11798.272 
   28500    290.95271    201.28045   -3209.3483   -2776.5782    1681.2638    11802.865 
   28550    309.14741    201.77099   -3225.6996   -2765.8662    1207.1309    11808.035 
   28600    298.06521    201.37662   -3212.5539   -2769.2045    1500.6063    11813.595 
   28650    309.73701    201.68427   -3222.8089   -2762.0986    1017.2482    11819.603 
   28700    290.40654    201.09509   -3203.1698    -2771.212     1455.078    11825.925 
   28750    302.85579    201.44232   -3214.7441    -2764.269    1078.5528    11832.684 
   28800    319.49715    201.84548   -3228.1826   -2752.9548    550.66459    11839.731 
   28850     305.9163    201.43485   -3214.4951   -2759.4677    812.80349    11846.828 
   28900    301.59143    201.27641   -3209.2136   -2760.6192    873.28517    11854.071 
   28950    306.30282    201.45885    -3215.295   -2759.6928    702.18122    11861.474 
   29000    299.27659    201.28305    -3209.435   -2764.2838    809.11189    11868.987 
   29050    298.24651    201.19126   -3206.3754   -2762.7563    772.71546    11876.649 
   29100    299.97667    201.20127   -3206.7089   -2760.5163    660.47527    11884.444 
   29150    308.52041    201.40916   -3213.6386   -2754.7378    413.16746     11892.31 
   29200    309.74046    201.27888    -3209.296   -2748.5806    449.12435    11900.119 
   29250    298.40007    200.98723   -3199.5743   -2755.7268    660.76874    11907.905 
   29300    298.52573    200.98996   -3199.6652   -2755.6308    616.55139    11915.757 
   29350    285.20749    200.55475   -3185.1582   -2760.9337    903.17158    11923.695 
   29400    297.00013      200.893   -3196.4332   -2754.6681    463.05287     11931.81 
   29450    308.30255    201.17853   -3205.9511   -2747.3744    20.774483    11939.902 
   29500    303.13893    201.02746   -3200.9154   -2750.0193    63.821341    11947.757 
   29550    311.77841    201.30488   -3210.1627    -2746.416   -234.55742     11955.35 
   29600    297.91211    200.88524   -3196.1747    -2753.053    7.5898377    11962.573 
   29650    301.41064    200.84753   -3194.9175   -2746.5921   -94.853033    11969.512 
   29700    310.98066    201.10341   -3203.4469   -2740.8867   -428.74387    11976.113 
   29750    299.99918    200.66878   -3188.9594   -2742.7333   -103.88298    11982.231 
   29800    293.36244    200.40404   -3180.1347   -2743.7803    158.52636    11988.018 
   29850    308.86782    200.82602   -3194.2008   -2734.7834   -214.69334    11993.595 
   29900    318.94645    200.99931   -3199.9771   -2725.5685    -422.9769    11998.766 
   29950    298.70862    200.23888   -3174.6294    -2730.323    263.67627    12003.468 
   30000    310.68143    200.56472   -3185.4905   -2723.3754    37.573683    12007.968 
   30050    316.02679    200.57035   -3185.6782   -2715.6123   -67.666233    12012.221 
   30100    310.58009    200.36114   -3178.7046   -2716.7403    23.840385    12016.173 
   30150    306.98304    200.13511   -3171.1704   -2714.5564    133.86184    12019.827 
   30200     317.4005    200.35464   -3178.4881    -2706.379    -80.89758    12023.223 
   30250    302.81052    199.88018   -3162.6728   -2712.2651    354.37056    12026.313 
   30300    305.80033    199.90779   -3163.5931   -2708.7383    349.00148    12029.273 
   30350    317.33604    200.13404   -3171.1346   -2699.1213  -0.91776613    12032.117 
   30400    309.96784    199.91193    -3163.731   -2702.6773      128.731    12034.676 
   30450    321.89672    200.27005   -3175.6682   -2696.8712   -130.06082    12036.976 
   30500    319.77372    200.09354   -3169.7846   -2694.1455   -38.050407    12038.944 
   30550    317.73803    200.11878    -3170.626   -2698.0148   -25.927759     12040.57 
   30600    316.19116    200.02999   -3167.6662   -2697.3559    62.307525    12041.863 
   30650    308.23037     199.7424     -3158.08   -2699.6107    314.66415    12042.896 
   30700    318.00873    199.96102   -3165.3675   -2692.3536    144.93733    12043.758 
   30750    320.74476    200.12726   -3170.9088   -2693.8253    38.283804    12044.386 
   30800    314.87512    199.98553   -3166.1843   -2697.8314    191.23052     12044.74 
   30850    309.68129    199.80308   -3160.1025   -2699.4751    270.05241    12044.895 
   30900    326.07889    200.28476   -3176.1587    -2691.141   -250.16571    12044.859 
   30950    318.01665    200.19575   -3173.1918   -2700.1662   -157.26742    12044.409 
   31000    319.44585    200.28209   -3176.0698   -2700.9183   -179.32268    12043.535 
   31050    300.56907    204.61088    -3153.696   -2706.6223    334.79758    12042.291 
   31100    308.14694    204.82861   -3160.9538   -2702.6085    197.88829    12040.877 
   31150    310.35826     204.9868   -3166.2267   -2704.5923    172.25111    12039.286 
   31200    302.79741    204.80875   -3160.2915   -2709.9033    387.49936    12037.498 
   31250    313.10065    205.10074   -3170.0245    -2704.311    231.67015    12035.606 
   31300    316.54769    205.22164   -3174.0548   -2703.2141    178.21278     12033.56 
   31350    310.92382    205.12334   -3170.7779   -2708.3023    268.69066    12031.313 
   31400    306.53737    204.92202   -3164.0674   -2708.1163    302.43314      12028.9 
   31450    313.58691    205.08286   -3169.4285   -2702.9918    153.97736    12026.324 
   31500    305.19523    204.77035   -3159.0118    -2705.057    422.36457    12023.555 
   31550    324.07211    205.40616   -3180.2053   -2698.1726   -72.359843    12020.648 
   31600    306.14865    204.88678   -3162.8928   -2707.5199    471.32945    12017.457 
   31650    313.53287    205.21812   -3173.9373   -2707.5809    280.31648    12014.173 
   31700    310.13015    205.19631   -3173.2104   -2711.9153     382.4503    12010.753 
   31750     311.0604    205.22007   -3174.0025   -2711.3237    355.23899    12007.214 
   31800    303.69023    205.07089   -3169.0295   -2717.3133    406.82419    12003.588 
   31850    301.43743    205.09726   -3169.9085   -2721.5432    387.39212    11999.879 
   31900    318.67944    205.65807   -3188.6023   -2714.5908    -112.8712    11996.038 
   31950    310.93005    205.39137   -3179.7122   -2717.2273    193.82816    11991.864 
   32000    308.58139    205.30484    -3176.828   -2717.8365    335.67814    11987.477 
   32050    311.83781    210.41425   -3180.4749   -2716.6398    228.77147    11982.954 
   32100    311.14778    210.48026   -3182.6754   -2719.8667    293.24678    11978.258 
   32150    293.53095    209.87435   -3162.4782   -2725.8732     929.7743     11973.46 
   32200    296.70488    210.06431   -3168.8104   -2727.4843    880.02392    11968.821 
   32250    303.17793    210.29877   -3176.6255   -2725.6714    692.17644    11964.356 
   32300    300.31109    210.27567   -3175.8555   -2729.1655     727.6101    11959.978 
   32350    296.83121    210.23992   -3174.6641   -2733.1501    755.55958    11955.707 
   32400    306.13247    210.61953   -3187.3177   -2731.9689     426.8942    11951.525 
   32450    299.83477    210.51457   -3183.8189   -2737.8374    611.34314    11947.318 
   32500    302.25339    210.59795   -3186.5984   -2737.0194    545.19149    11943.142 
   32550    316.84785    211.06847   -3202.2822    -2730.995    115.73827    11938.951 
   32600    307.79137    210.76354   -3192.1181   -2734.3017    471.00919    11934.578 
   32650    285.12374    210.17153   -3172.3844   -2748.2844    1181.8405    11930.183 
   32700    294.95478    210.52137   -3184.0456   -2745.3227    917.59396    11926.082 
   32750    303.84399    210.90595   -3196.8651   -2744.9202    608.93461    11922.185 
   32800    297.27106    210.67079   -3189.0262    -2746.858    868.56864    11918.359 
   32850    293.07928    210.47666   -3182.5555   -2746.6223    1011.9764    11914.713 
   32900    305.86435    210.80181   -3193.3936   -2738.4436    733.33942     11911.29 
   32950    302.23694    210.83755   -3194.5851   -2745.0305    780.37055    11907.996 
   33000    310.40867    211.10582   -3203.5272   -2741.8178    573.32708    11904.811 
   33050    287.21197    210.44532   -3181.5105   -2754.3045    1272.4029    11901.691 
   33100    289.04403    210.54173   -3184.7242   -2754.7931    1218.7563    11898.916 
   33150    307.54772    211.06957    -3202.319    -2744.865    699.04048    11896.496 
   33200    309.16647     211.1917   -3206.3901   -2746.5284    647.76167    11894.192 
   33250    305.31806    211.05227   -3201.7425    -2747.605    787.00368    11891.944 
   33300    292.64668     210.6505   -3188.3501   -2753.0603    1165.7664    11889.862 
   33350    304.72856    211.02836   -3200.9455   -2747.6848    825.99201    11888.075 
   33400    302.57191    211.05059   -3201.6862   -2751.6334    803.27595    11886.469 
   33450    294.57274    210.79872   -3193.2906   -2755.1359    1092.3885    11885.015 
   33500    287.59688    210.61244   -3187.0814   -2759.3028    1293.3281    11883.851 
   33550    291.54257    210.69521   -3189.8405    -2756.193    1128.8919    11883.099 
   33600    303.05799    210.99933   -3199.9777   -2749.2019    807.91019     11882.65 
   33650    300.18615    210.99414   -3199.8047   -2753.3005     850.8854    11882.372 
   33700    309.06817    211.35056   -3211.6853   -2751.9698    575.82287    11882.252 
   33750    302.47055    211.11122   -3203.7075   -2753.8054     875.4973    11882.196 
   33800    292.45765    210.81597   -3193.8656    -2758.857    1189.2174    11882.332 
   33850    288.07313    210.70769   -3190.2562   -2761.7692    1198.3421    11882.821 
   33900    288.05286    210.69088   -3189.6959   -2761.2391    1129.5061    11883.682 
   33950     306.8059    211.34097   -3211.3656   -2755.0151    551.41718    11884.843 
   34000    299.55403    211.13555   -3204.5184   -2758.9545    657.60721    11886.077 
   34050    292.58431    210.89185    -3196.395    -2761.198    862.24324    11887.391 
   34100    293.56195    210.98725   -3199.5749   -2762.9237     840.0754    11888.892 
   34150    295.96746    211.00799   -3200.2663   -2760.0371    723.11865    11890.579 
   34200    291.40999    210.86097   -3195.3655   -2761.9153    841.44117    11892.402 
   34250    295.55086      211.045   -3201.5001   -2761.8906     731.8616    11894.407 
   34300    287.66412    210.79907   -3193.3022   -2765.4236     903.6672    11896.567 
   34350    296.52716    211.11301   -3203.7671   -2762.7055    608.40975    11898.903 
   34400    294.02576    211.01422    -3200.474    -2763.133    615.72307    11901.336 
   34450    285.88049    210.68625   -3189.5418   -2764.3162    879.97925    11903.863 
   34500      294.597    211.00779   -3200.2597    -2762.069    557.83899    11906.571 
   34550    285.89684    210.72227   -3190.7423   -2765.4924    715.38843    11909.371 
   34600    293.97808    210.89424   -3196.4747   -2759.2045    513.58934     11912.28 
   34650    301.71598    211.12518   -3204.1728   -2755.3932    232.53229    11915.213 
   34700    298.66685     211.1277   -3204.2567   -2760.0124    286.65666    11918.032 
   34750    296.14416    211.05584   -3201.8613   -2761.3693    364.62478    11920.763 
   34800    283.15356    210.65101   -3188.3671   -2767.1976    740.36272    11923.455 
   34850    275.42047    210.37053   -3179.0177   -2769.3506    1004.7817    11926.296 
   34900    298.26291     211.1425   -3204.7502   -2761.1067    252.43286    11929.384 
   34950    298.89666    211.12473   -3204.1576   -2759.5714    172.27772    11932.406 
   35000    285.04911    210.62881   -3187.6271   -2763.6381     568.7411    11935.302 
   35050    294.77019    210.86934   -3195.6447   -2757.1964    322.74533    11938.211 
   35100    288.51217    210.70494   -3190.1646   -2761.0247    385.21316    11941.076 
   35150    295.40792    210.83916   -3194.6387   -2755.2418    252.01518     11943.88 
   35200    276.55107    210.23592   -3174.5305   -2763.1818    792.76262    11946.626 
   35250    301.22518    211.06215   -3202.0718   -2754.0221     106.3587    11949.486 
   35300    310.22106    211.21006   -3207.0021   -2745.5718   -58.917435    11952.193 
   35350     288.4841    210.47611   -3182.5369   -2753.4386    555.22873    11954.645 
   35400    285.00004    210.35711   -3178.5702   -2754.6542    578.78618    11957.121 
   35450    305.24355    210.96507   -3198.8358   -2744.8091   -44.281263    11959.619 
   35500    297.51926    210.71271   -3190.4236   -2747.8863    176.82851    11961.882 
   35550    297.23148     210.5923   -3186.4101   -2744.3008    231.64522    11963.979 
   35600    295.62345    210.51367   -3183.7891   -2744.0716    319.29622     11965.95 
   35650    292.66957    210.45649   -3181.8829   -2746.5591    466.43151    11967.832 
   35700    294.56938    210.34782   -3178.2608   -2740.1112    461.66897    11969.704 
   35750    306.91926    210.65658   -3188.5527   -2732.0336    104.83272    11971.549 
   35800    296.90613    210.30013    -3176.671   -2735.0457    421.78036    11973.231 
   35850    299.69632    210.30281   -3176.7604   -2730.9848    358.88258    11974.852 
   35900    300.80113    210.23326   -3174.4419   -2727.0231    463.63118    11976.417 
   35950    303.88737    210.32719    -3177.573   -2725.5635    515.12658    11977.962 
   36000    291.70982    209.92039    -3164.013   -2730.1168    809.45871    11979.542 
   36050     301.8106    210.14673   -3171.5576   -2722.6372    588.89175     11981.26 
   36100    306.75535    210.17444   -3172.4812   -2716.2059     519.9153    11983.043 
   36150     322.7725     210.6402   -3188.0065   -2707.9069    108.72968    11984.803 
   36200     302.5545    210.04203   -3168.0675   -2718.0406     710.9928     11986.41 
   36250    300.57241    209.89585    -3163.195   -2716.1163    839.72032    11988.108 
   36300    317.22332    210.27453   -3175.8175   -2703.9719    381.76364    11989.968 
   36350    302.00802    209.78106   -3159.3687   -2710.1547    835.86709    11991.816 
   36400    310.28496    210.06898    -3168.966   -2707.4407    617.71695    11993.797 
   36450    315.06845    210.27434   -3175.8115    -2707.171    387.31192     11995.84 
   36500     302.8295    209.88867   -3162.9558   -2712.5198     774.3162    11997.864 
   36550    312.72765    210.17336   -3172.4453   -2707.2866    538.57561    12000.008 
   36600    314.98755    210.24178   -3174.7261    -2706.206    477.85698    12002.191 
   36650    303.45387    209.91754   -3163.9181   -2712.5535    796.61384    12004.395 
   36700    306.38614    209.91649   -3163.8831   -2708.1569    656.21782    12006.733 
   36750    312.54299    210.13996   -3171.3319   -2706.4479    410.23724    12009.157 
   36800    303.91097    209.89147   -3163.0489   -2711.0044    614.98073     12011.57 
   36850    307.97553    209.95787   -3165.2624   -2707.1722    444.67346    12014.022 
   36900    331.01535    210.69423   -3189.8076   -2697.4474   -286.25539    12016.424 
   36950    300.13979    209.69277   -3156.4256   -2709.9904    520.53851    12018.497 
   37000    296.51292    209.69493   -3156.4978   -2715.4573    661.49645    12020.526 
   37050    308.54505    210.00336   -3166.7788   -2707.8414    379.84725    12022.654 
   37100    315.71263    210.22822   -3174.2739   -2704.6753    227.62758    12024.722 
   37150    309.00678    209.92702   -3164.2341   -2704.6099    372.44518    12026.673 
   37200    309.28504    209.99522   -3166.5074   -2706.4693    187.13353    12028.536 
   37250    300.88863    209.74248   -3158.0826   -2710.5336     412.7103    12030.258 
   37300    295.45298    209.60596   -3153.5319    -2714.068    608.53575    12031.941 
   37350    297.23589     209.6938     -3156.46   -2714.3441    436.35815    12033.683 
   37400    306.39144    209.88491   -3162.8305   -2707.0964    121.59584    12035.401 
   37450    315.31095    210.21182   -3173.7273   -2704.7261   -165.06664    12036.926 
   37500    309.20982    210.07981   -3169.3271   -2709.4009    1.6555584    12038.118 
   37550    309.04552    210.04386   -3168.1287   -2708.4469   -38.491682    12039.028 
   37600    316.48083     210.2591   -3175.3032    -2704.562   -275.98754    12039.643 
   37650    309.89949     210.1215   -3170.7168   -2709.7648   -101.10837    12039.863 
   37700    304.59594    209.89887   -3163.2956   -2710.2322    71.474749    12039.759 
   37750    310.33761    210.03075   -3167.6916   -2706.0879   -14.186403    12039.391 
   37800     289.0731    209.48551    -3149.517   -2719.5426    468.78041    12038.789 
   37850     300.7027    209.84732   -3161.5772   -2714.3047    107.55645    12038.106 
   37900    287.97802    209.57521   -3152.5069   -2724.1614     468.5287    12037.252 
   37950    302.28737    209.99167    -3166.389   -2716.7594    164.08726    12036.334 
   38000    304.02521    210.10373   -3170.1242   -2717.9097    57.162661    12035.237 
   38050    304.00015    210.08648   -3169.5492    -2717.372    90.693859    12033.895 
   38100    289.27587    209.65345   -3155.1151   -2724.8392    453.46684     12032.35 
   38150    293.96072     209.7974   -3159.9132   -2722.6689    279.19274    12030.726 
   38200     300.2371    210.05407   -3168.4689    -2721.889    119.36987    12028.969 
   38250    306.98229    210.30648   -3176.8826   -2720.2698    -149.4221     12026.99 
   38300    322.30931    210.74425   -3191.4751   -2712.0645   -554.49903    12024.632 
   38350       292.57    209.89251   -3163.0836   -2727.9079    334.51757     12021.75 
   38400    298.78946    210.17903   -3172.6342   -2728.2076    128.57126    12018.689 
   38450     313.8355    210.57884   -3185.9614   -2719.1549    -277.5436    12015.401 
   38500    290.94372    209.93855   -3164.6183   -2731.8616     399.3959    12011.726 
   38550    295.59739    210.10335   -3170.1118   -2730.4331    308.89963    12007.905 
   38600    298.69219    210.19539   -3173.1798   -2728.8978    209.75124    12003.956 
   38650    302.11534    210.25172   -3175.0574   -2725.6837    172.94924    11999.818 
   38700    306.35003    210.46844   -3182.2815    -2726.609     107.4249    11995.459 
   38750    304.85818    210.37306    -3179.102   -2725.6486      175.519    11990.871 
   38800    309.70314    210.63954   -3187.9847   -2727.3248    3.5500625    11986.049 
   38850    307.26827    210.56191    -3185.397   -2728.3588    101.83431    11980.934 
   38900    310.33551    210.71834   -3190.6114   -2729.0109    38.584848    11975.522 
   38950    295.45548    210.24208   -3174.7361   -2735.2685    581.86648    11969.843 
   39000    286.09228    209.99181   -3166.3936    -2740.853    949.00682    11964.143 
   39050    288.01051    215.14113    -3171.371   -2742.9771    872.67435    11958.611 
   39100    297.45469     215.4639   -3182.1299   -2739.6886    641.66717    11953.248 
   39150    299.08489    215.56116   -3185.3719   -2740.5058    588.59466    11947.947 
   39200    297.39807     215.5006   -3183.3532   -2740.9961    630.82274    11942.665 
   39250    292.54562    215.34624    -3178.208   -2743.0686    849.70504    11937.427 
   39300    282.87306    215.07019   -3169.0062    -2748.254    1131.8937    11932.352 
   39350    300.36718    215.76686   -3192.2286   -2745.4551    618.81113    11927.519 
   39400    286.50853    215.28004   -3176.0013   -2749.8416    1071.3137    11922.789 
   39450    317.54867    216.32152   -3210.7172   -2738.3876    161.99496    11918.239 
   39500     298.1088    215.78108   -3192.7026   -2749.2883    659.68023    11913.556 
   39550    293.75994    215.68757   -3189.5858   -2752.6401    900.51226    11908.903 
   39600    298.02696     215.8035     -3193.45   -2750.1574    881.24424     11904.43 
   39650    295.83261    215.74775   -3191.5917   -2751.5631    1041.1497    11900.122 
   39700    282.91195    215.34197   -3178.0658   -2757.2557     1447.611    11896.091 
   39750    298.73208    215.89243   -3196.4142   -2752.0729    929.83305    11892.467 
   39800    295.08556     215.8183   -3193.9432   -2755.0258    979.71157    11889.092 
   39850    292.89277    215.87786   -3195.9286   -2760.2728     1030.198    11885.933 
   39900    291.43596    215.78088    -3192.696   -2759.2071    1129.2769    11883.063 
   39950    305.67477    216.30006   -3210.0019   -2755.3339     784.9697    11880.493 
   40000    291.46263    215.88127   -3196.0424   -2762.5138    1212.6716    11878.108 
   40050    305.51871     211.3093   -3210.3102   -2755.8742    717.63333    11876.017 
   40100    299.57119    210.99652    -3199.884   -2754.2946    857.24804    11874.038 
   40150    287.32652    210.72179   -3190.7262   -2763.3498    1287.2598    11872.248 
   40200    309.38451    211.47217   -3215.7391   -2755.5531    714.42598    11870.805 
   40250    297.80597    211.15624    -3205.208   -2762.2442    932.29239    11869.518 
   40300    276.28072    210.55527   -3185.1757   -2774.2291     1441.244    11868.456 
   40350    305.18515    211.46068    -3215.356   -2761.4162     717.1705     11867.79 
   40400    300.09885    211.28103   -3209.3677   -2762.9934    892.54443    11867.296 
   40450    296.55908    211.17053   -3205.6842   -2764.5751    903.75333    11866.981 
   40500    289.86399    211.02426   -3200.8087    -2769.658     1046.854    11866.877 
   40550    290.12538    211.00917   -3200.3058   -2768.7663    1038.2567    11867.049 
   40600    300.53596    211.33356   -3211.1187   -2764.0942    680.38599    11867.478 
   40650    276.73717    210.66662   -3188.8874   -2777.2619    1257.6535    11868.076 
   40700    292.74595    211.23577   -3207.8591   -2772.4217     794.2865    11869.021 
   40750    276.77471    210.74196   -3191.3988   -2779.7174    1237.2307    11870.206 
   40800    295.66208    211.23872   -3207.9573   -2768.1823    761.66972    11871.737 
   40850    306.42905    211.66506   -3222.1688   -2766.3788    325.54303    11873.427 
   40900    295.03036     211.3733   -3212.4434   -2773.6081    570.35737    11875.074 
   40950    289.46563    211.14397   -3204.7989   -2774.2407    723.03395    11876.786 
   41000     288.9158      211.192   -3206.4002   -2776.6598    602.80533     11878.63 
   41050    295.99514    206.46818   -3215.6061   -2775.3358    266.09967    11880.525 
   41100    297.81168    206.51491   -3217.1636   -2774.1913    194.45503    11882.324 
   41150    284.26033    206.16381   -3205.4604   -2782.6447    601.00729    11884.002 
   41200    278.46302    205.98068    -3199.356   -2785.1633    761.83313    11885.736 
   41250    292.87686    206.49073   -3216.3578   -2780.7257    288.77939    11887.586 
   41300    286.04473    206.33659   -3211.2198   -2785.7499    425.70992    11889.381 
   41350    288.12551    206.49389   -3216.4629    -2787.898    297.39645    11891.129 
   41400    291.40723    206.57643   -3219.2144   -2785.7682    125.33023    11892.792 
   41450    281.70379    206.32153   -3210.7177   -2791.7046    255.32481    11894.298 
   41500    302.15059    206.99164   -3233.0545   -2783.6284   -382.88131    11895.637 
   41550    291.86008    206.78395   -3226.1317    -2792.012   -235.09878    11896.579 
   41600     285.4446    206.62822   -3220.9408   -2796.3636   -117.81674    11897.139 
   41650    283.36835    206.64459   -3221.4862   -2799.9972   -82.552835    11897.375 
   41700    264.07361    206.10138   -3203.3792   -2810.5898    463.42992     11897.34 
   41750    260.10539    205.97716   -3199.2387   -2812.3517    498.38071    11897.288 
   41800    296.48374    207.15884   -3238.6279   -2797.6308   -670.35886    11897.174 
   41850    278.10193    206.61326    -3220.442   -2806.7864   -197.26198    11896.536 
   41900    265.50049     206.2398   -3207.9933   -2813.0815    107.60464     11895.52 
   41950    275.07819    206.53815   -3217.9382   -2808.7802    -146.8592    11894.276 
   42000    287.02065    206.97409   -3232.4695    -2805.548   -456.20511    11892.684 
   42050    268.26803    206.49053    -3216.351   -2817.3227    42.172778     11890.63 
   42100    270.81234    206.50598   -3216.8661   -2814.0533    75.975783     11888.29 
   42150    262.72205    206.39912   -3213.3042    -2822.525    261.48252    11885.733 
   42200    277.02235     206.8212   -3227.3732   -2815.3235   -129.32013    11883.013 
   42250    285.74896     207.0545   -3235.1501   -2810.1202   -341.36077     11879.95 
   42300    276.57294    206.68298   -3222.7661   -2811.3848   -21.909633    11876.445 
   42350    274.08013    206.69524   -3223.1746   -2815.5012     73.66816    11872.615 
   42400    266.44088    206.54919   -3218.3062   -2821.9956    294.82495    11868.529 
   42450    270.42586    206.58617   -3219.5391   -2817.3011    262.09554    11864.299 
   42500    280.09803    206.85724   -3228.5745   -2811.9499    60.983132    11859.903 
   42550    278.70306    206.83638   -3227.8794   -2813.3298    170.65966    11855.259 
   42600    284.56331    206.97691   -3232.5637   -2809.2973    44.742816     11850.38 
   42650     277.9049    206.84035   -3228.0116   -2814.6491    182.81565    11845.235 
   42700    277.04336     206.7808   -3226.0266   -2813.9456    270.23896    11839.868 
   42750    276.27203    206.72862   -3224.2873   -2813.3536    484.53951    11834.328 
   42800    273.51351    206.64744   -3221.5812   -2814.7506    725.53999    11828.737 
   42850    281.53911    206.88599   -3229.5331    -2810.765    603.64667    11823.198 
   42900    296.75637    207.25708   -3241.9028   -2800.5001    299.88148    11817.638 
   42950    282.66442    206.74839   -3224.9463   -2804.5044    769.23481    11811.954 
   43000    277.86794    206.57657   -3219.2191   -2805.9116    1060.4187    11806.329 
   43050    281.71113    206.68366   -3222.7885   -2803.7646     1074.821    11800.916 
   43100    294.16601    207.07397    -3235.799   -2798.2493    822.94822    11795.724 
   43150    292.84994     207.0322   -3234.4067   -2798.8146    990.40827     11790.67 
   43200    281.56213    206.64536   -3221.5121   -2802.7097    1407.4757    11785.821 
   43250    284.00829     206.6531   -3221.7699   -2799.3291    1446.5777    11781.372 
   43300    295.66267    206.98694   -3232.8978    -2793.122    1258.4112    11777.336 
   43350    299.89368    207.04682    -3234.894   -2788.8248    1243.5449    11773.641 
   43400    294.86306    206.86334   -3228.7779   -2790.1915    1485.1568    11770.289 
   43450    296.24473    206.85616   -3228.5388   -2787.8972    1568.8501    11767.375 
   43500    278.88887    206.35421    -3211.807    -2796.981    2068.4553    11764.998 
   43550    297.99033    206.87109   -3229.0362   -2785.7982    1624.5237    11763.324 
   43600    297.03125    206.83195   -3227.7317   -2785.9202    1671.9042    11762.231 
   43650    294.24565    206.73951   -3224.6504   -2786.9823    1738.0645    11761.714 
   43700    290.74457    206.52833    -3217.611   -2785.1505    1823.9815    11761.821 
   43750    313.83837    207.17229   -3239.0765   -2772.2657    1212.8982    11762.525 
   43800    289.67591     206.4564   -3215.2132   -2784.3423    1837.3009    11763.655 
   43850    298.53969    206.72699    -3224.233   -2780.1778    1626.7611    11765.412 
   43900    293.84019    206.66018   -3222.0058   -2784.9408    1650.3247    11767.772 
   43950    289.07246     206.4709   -3215.6968   -2785.7234    1769.8746    11770.743 
   44000     293.2478    206.54468    -3218.156   -2781.9721    1761.4921    11774.377 
   44050    304.04719    206.85815   -3228.6049   -2776.3578     1395.933    11778.656 
   44100     310.5692     207.0605   -3235.3499   -2773.4017    1073.6954    11783.417 
[...]
   89400    289.88915     201.2926   -3209.7533   -2778.5651    1148.4569    11842.991 
   89450    299.51729    201.56467   -3218.8223    -2773.313    778.08213    11847.577 
   89500    296.80696    201.50115   -3216.7049    -2775.227    771.54882    11852.273 
   89550    293.90581     201.3529   -3211.7632   -2774.6006    886.11419    11857.044 
   89600    309.91992    201.79801   -3226.6003   -2765.6179    317.86947    11861.922 
   89650    308.41896    201.76035   -3225.3448    -2766.595    223.43652    11866.676 
   89700    286.04627     201.0208   -3200.6933   -2775.2211    874.21898    11871.276 
   89750    292.23299    201.21446   -3207.1488   -2772.4744    698.85509    11875.972 
   89800    293.48085    201.25422   -3208.4741   -2771.9436    569.62124    11880.725 
   89850    301.40337    201.53158   -3217.7192   -2769.4045    332.61064    11885.449 
   89900    298.32246    201.44701   -3214.9002   -2771.1682    407.25247    11890.065 
   89950    305.33724    201.52568   -3217.5226   -2763.3566    221.89831    11894.554 
   90000    285.38903    200.95568   -3198.5226   -2774.0281    651.41125    11898.879 
   90050    289.24173    206.05933   -3201.9775   -2771.7524    495.69887    11903.219 
   90100    304.12994    206.40318   -3213.4392   -2761.0689    77.105087    11907.502 
   90150    296.15346    206.20256   -3206.7521   -2766.2463    298.64155    11911.559 
   90200    286.79435    205.95565   -3198.5218   -2771.9369    587.43441    11915.485 
   90250    290.61668    206.05165   -3201.7216   -2769.4513    383.41958    11919.397 
   90300    296.10495    206.12074   -3204.0246   -2763.5909    205.34109    11923.228 
   90350     291.6972    206.01415   -3200.4716   -2766.5941     320.6043     11926.88 
   90400    296.78039    206.05197   -3201.7324    -2760.294     197.3499    11930.392 
   90450    284.40642    205.65912   -3188.6372   -2765.6042    540.29567    11933.753 
   90500    284.17965     205.5902   -3186.3402   -2763.6445    567.51843     11937.08 
   90550    300.86945    206.01109   -3200.3698   -2752.8493    76.824453    11940.388 
   90600    296.44981    205.87863   -3195.9543   -2755.0076    200.46662     11943.48 
   90650    299.40332    205.93637   -3197.8789   -2752.5392    190.65112    11946.379 
   90700    301.26937    205.91256   -3197.0854     -2748.97    173.19509    11949.085 
   90750    296.41489    205.64076   -3188.0255   -2747.1308    319.08762    11951.592 
   90800    293.41529    205.58889   -3186.2964   -2749.8634    370.16294    11953.976 
   90850    297.13192    205.60379   -3186.7929   -2744.8317     266.4533    11956.253 
   90900    297.88779    205.59628   -3186.5427   -2743.4572    257.40931    11958.379 
   90950    294.42105    205.50034   -3183.3446   -2745.4156    352.85937    11960.366 
   91000    307.89325    205.85251   -3195.0838   -2737.1159   -47.351807    11962.232 
   91050    314.58384    201.06505   -3202.1682   -2734.2486   -223.02836    11963.791 
   91100    311.34745    200.87517    -3195.839   -2732.7332    29.941234    11964.937 
   91150     297.8779     200.4398   -3181.3265   -2738.2557    499.28474    11965.821 
   91200    302.39837    200.55125   -3185.0417    -2735.247    313.54085    11966.627 
   91250    302.90428    200.55685   -3185.2284   -2734.6812    254.56468    11967.307 
   91300    308.57961    200.72676   -3190.8921   -2731.9033    189.51352    11967.804 
   91350    310.48209    200.70817   -3190.2722   -2728.4536    178.37141    11968.099 
   91400    302.36803     200.3816   -3179.3865    -2729.637    398.31864    11968.218 
   91450    311.72305    200.66898   -3188.9661   -2725.3017    185.70499    11968.221 
   91500    301.08539    200.32694   -3177.5647    -2729.723    473.40742    11968.055 
   91550    307.39177    200.56335   -3185.4449   -2728.2229    381.00463    11967.794 
   91600    306.55046    200.55635   -3185.2116   -2729.2411    350.35633    11967.458 
   91650    329.39465    201.23947   -3207.9823   -2718.0327   -237.20878    11966.955 
   91700    293.57354    200.15872   -3171.9574    -2735.289    757.92074    11966.115 
   91750    304.38556    200.53292   -3184.4307   -2731.6802    498.35689    11965.313 
   91800     312.8656    200.69654   -3189.8847   -2724.5208    327.65618    11964.492 
   91850    309.29354    200.59705   -3186.5683   -2726.5176    444.42666    11963.559 
   91900    319.90976    200.91519   -3197.1729   -2721.3313    149.15438    11962.534 
   91950    314.80342    200.85338   -3195.1126   -2726.8664    279.07077    11961.296 
   92000    304.66875    200.55665   -3185.2217     -2732.05    528.54297    11959.899 
   92050    299.00197    200.35033   -3178.3443   -2733.6015    701.12124    11958.483 
   92100    296.11152    200.30057   -3176.6858   -2736.2423    822.27852    11957.169 
   92150    314.93245    200.73706   -3191.2353   -2722.7972    312.08566    11955.954 
   92200    315.35426    200.76472   -3192.1575   -2723.0919     244.4614    11954.616 
   92250      313.832    200.72834   -3190.9446   -2724.1433    298.50515    11953.116 
   92300    308.40625    200.57298   -3185.7661   -2727.0352    517.39337    11951.485 
   92350    307.74738    200.65127   -3188.3757   -2730.6248    542.76974     11949.82 
   92400    307.58812    200.58725   -3186.2417   -2728.7276    566.43407    11948.152 
   92450    313.14118    200.81711   -3193.9038     -2728.13    359.51386    11946.472 
   92500    299.91331    200.40854   -3180.2848   -2734.1865    650.49422    11944.718 
   92550    303.19661    200.49208   -3183.0695   -2732.0875    618.45155    11942.991 
   92600    314.67372    200.85268   -3195.0895   -2727.0362    299.30858    11941.276 
   92650     299.9957    200.52479   -3184.1597   -2737.9388    649.26291    11939.451 
   92700    312.88692    200.90138   -3196.7125    -2731.317    352.33858    11937.626 
   92750    305.37125    200.75277    -3191.759   -2737.5424    493.96488    11935.734 
   92800     317.2627    201.04722   -3201.5739   -2729.6697    281.74185    11933.769 
   92850    304.89609    200.66149   -3188.7162   -2735.2064      711.394    11931.701 
   92900    303.36549     200.6825   -3189.4168   -2738.1836    765.76752     11929.69 
   92950    309.63358    200.94844   -3198.2814   -2737.7249    467.65673    11927.773 
   93000    306.88936    200.87196    -3195.732   -2739.2573    535.90785    11925.829 
   93050    305.25386    200.86787   -3195.5958   -2741.5538    669.95771    11923.873 
   93100    308.17538    200.92571   -3197.5237   -2739.1362    652.76204    11921.974 
   93150     298.9279    200.65546   -3188.5153   -2743.8828    882.70282    11920.146 
   93200    316.13721    201.19191    -3206.397   -2736.1669    416.59582    11918.448 
   93250    303.64701    200.82614   -3194.2047   -2742.5528    718.10923    11916.737 
   93300    310.74959    201.07387   -3202.4625    -2740.246    504.39895    11915.078 
   93350    302.46102    200.91411   -3197.1371   -2747.2493     609.0934     11913.41 
   93400    305.73957    201.02458   -3200.8193   -2746.0549    595.04617    11911.758 
   93450    313.01193    201.21968   -3207.3226    -2741.741    400.63054    11910.134 
   93500    314.44902    201.26314   -3208.7714   -2741.0523    259.34822    11908.402 
   93550    300.66635    201.03588    -3201.196   -2753.9776    522.26365    11906.532 
   93600     305.4989    201.19211   -3206.4036   -2751.9972    413.02187    11904.629 
   93650    291.76737    200.80789   -3193.5965   -2759.6146    845.58641    11902.674 
   93700    293.25175    200.82825   -3194.2751   -2758.0853    849.89392    11900.867 
   93750    311.22304    201.34161   -3211.3871   -2748.4664    366.66982    11899.201 
   93800    302.41974    201.11825   -3203.9418   -2754.1154    630.52507    11897.474 
   93850    301.65329    201.11834   -3203.9446   -2755.2582    726.49159    11895.769 
   93900    304.59844    201.20941   -3206.9803   -2753.9132    665.91186    11894.154 
   93950    309.98572    201.40528   -3213.5093    -2752.429    501.08959    11892.599 
   94000    309.78101    201.48661   -3216.2205   -2755.4447    501.96603    11891.012 
   94050    294.40117    201.03336   -3201.1119   -2763.2125    931.61184    11889.429 
   94100    294.21597    201.05724   -3201.9081   -2764.2841    828.96374    11888.017 
   94150    299.32137    201.22546   -3207.5154   -2762.2976    618.99025    11886.749 
   94200    306.50634    201.52319   -3217.4397   -2761.5348    400.68394     11885.52 
   94250    297.85964    201.21665   -3207.2216   -2764.1779    641.65158     11884.22 
   94300    298.30477    201.18377   -3206.1256   -2762.4198    608.07274     11882.97 
   94350    304.91879    201.37123   -3212.3742   -2758.8306    410.36085    11881.751 
   94400    303.39604    201.40147   -3213.3824   -2762.1038    448.98544    11880.451 
   94450    300.15299    201.28116   -3209.3721   -2762.9173    669.35789    11879.109 
   94500    295.45338    201.16722   -3205.5739   -2766.1094    872.63394    11877.829 
   94550    294.87889    201.17493   -3205.8311   -2767.2211    789.52306     11876.72 
   94600    294.07948    201.17099   -3205.6997   -2768.2787     739.6208    11875.742 
   94650    288.98009    201.01654   -3200.5513   -2770.7153     868.5451    11874.888 
   94700    303.30709     201.4542     -3215.14   -2763.9937    548.21743    11874.163 
   94750    298.41118    201.34358   -3211.4528   -2767.5888    689.62874    11873.463 
   94800    308.48604    201.75642   -3225.2139   -2766.3643    361.07324    11872.804 
   94850    294.38019    201.40906   -3213.6352   -2775.7669    669.79672     11872.08 
   94900    293.02284    201.32438   -3210.8127   -2774.9634    721.85027      11871.4 
   94950    296.66147    201.33681   -3211.2271   -2769.9657    641.50598     11870.81 
   95000    294.10232    201.28093   -3209.3643   -2771.9094    670.14336    11870.281 
   95050    290.76904    206.13124   -3204.3747   -2771.8778    763.31484    11869.823 
   95100    285.15791    206.00112   -3200.0373   -2775.8865    942.60337    11869.488 
   95150    290.37914    206.16129   -3205.3764   -2773.4594    762.13194    11869.364 
   95200     302.2127    206.45261   -3215.0869   -2765.5684    419.21021    11869.355 
   95250    291.02649    206.09646   -3203.2153   -2770.3355    761.26536    11869.316 
   95300    290.10973    206.22813   -3207.6042   -2776.0879    765.22663    11869.382 
   95350    289.22798    206.19368   -3206.4559   -2776.2512    844.56371    11869.583 
   95400    299.83462    206.41997   -3213.9989   -2768.0176    660.53341     11869.93 
   95450    286.50439    206.06524   -3202.1746   -2776.0211    994.21977    11870.387 
   95500     287.1846    206.08406    -3202.802   -2775.6367      909.205    11871.063 
   95550    295.22386    206.34258   -3211.4194   -2772.2963     690.0203    11871.935 
   95600    297.55219    206.33078   -3211.0261   -2768.4398    730.94209    11872.895 
   95650    296.58356    206.31645   -3210.5482   -2769.4026    722.09737    11873.964 
   95700    298.69412    206.29371   -3209.7903   -2765.5054    599.20913    11875.128 
   95750    298.74093    206.31842   -3210.6141   -2766.2596    602.98359    11876.318 
   95800    301.78306    206.49853   -3216.6177   -2767.7382    527.77102    11877.527 
   95850    300.96835    206.45786   -3215.2619   -2767.5943    668.98976    11878.736 
   95900    286.83861    205.93874   -3197.9581   -2771.3074    1130.6115    11880.029 
   95950    287.79566    206.08666   -3202.8888   -2774.8146    1014.8315    11881.604 
   96000    294.99075    206.21477   -3207.1591   -2768.3827    815.95141    11883.428 
   96050    298.63106    206.24533   -3208.1777   -2763.9866    714.13487    11885.398 
   96100      294.803    206.16895   -3205.6318   -2767.1347    737.81407    11887.468 
   96150    296.32907    206.20539   -3206.8465   -2766.0795    616.84472    11889.642 
   96200    291.24053    206.06207   -3202.0692   -2768.8709    688.67603    11891.862 
   96250    300.77822    206.28818   -3209.6061   -2762.2213    426.06061    11894.135 
   96300    294.86916    206.10318   -3203.4394   -2764.8438    612.69451    11896.377 
   96350    290.75835     205.9547   -3198.4902   -2766.0092    752.57624    11898.634 
   96400    289.63397    205.86111   -3195.3703   -2764.5617    718.27808    11900.996 
   96450    294.38029    206.04895   -3201.6315   -2763.7631    482.84622     11903.43 
   96500    300.60912    206.13966   -3204.6555   -2757.5222    359.76993    11905.838 
   96550    302.74629    206.27077   -3209.0258   -2758.7136    320.17462    11908.149 
   96600    292.56522    205.93447   -3197.8155   -2762.6469    587.87734    11910.355 
   96650    295.79686    205.96213   -3198.7376   -2758.7622    574.21638    11912.569 
   96700    302.66659    206.11278   -3203.7593   -2753.5657    323.48506    11914.777 
   96750    282.76443    205.57849   -3185.9497   -2765.3591    812.26454    11916.902 
   96800    283.65035     205.6286   -3187.6202   -2765.7118    825.84524    11919.152 
   96850    303.29055    206.24272   -3208.0908   -2756.9691    262.44656    11921.528 
   96900    299.40653    206.10456   -3203.4855    -2758.141    369.27515    11923.784 
   96950    294.57184    205.93066   -3197.6885   -2759.5352     492.8154    11925.937 
   97000    302.92138    206.03037   -3201.0123   -2750.4397    315.32719    11928.052 
   97050    295.75116    205.88764   -3196.2548   -2756.3474    511.94244    11930.062 
   97100     296.9034    205.89051   -3196.3503    -2754.729    475.78078    11932.032 
   97150    286.69111    205.63988    -3187.996   -2761.5647    615.02238    11933.983 
   97200    294.39353     205.7948     -3193.16   -2755.2719    336.26845    11935.975 
   97250    311.00373    206.24905   -3208.3017   -2745.7072   -57.254787    11937.838 
   97300    291.35931     205.7371   -3191.2366   -2757.8617    466.56718    11939.415 
   97350    301.91953    205.88575   -3196.1918   -2747.1093    126.14619    11940.914 
   97400    304.55145    205.92226   -3197.4087   -2744.4115    53.386102    11942.199 
   97450     285.1109    205.39546   -3179.8486   -2755.7677    645.60791    11943.252 
   97500      299.925    205.90014   -3196.6715   -2750.5558    267.93272    11944.298 
   97550    291.51661    205.59554   -3186.5181   -2752.9092    447.73702    11945.244 
   97600    289.35676    205.51763    -3183.921   -2753.5248    527.50053    11946.136 
   97650    306.47401    206.06437   -3202.1456   -2746.2887     5.611379    11946.993 
   97700    298.64851    205.87564   -3195.8548   -2751.6377     172.1343    11947.595 
   97750    296.01997    205.79226   -3193.0754   -2752.7681    322.18693    11948.011 
   97800    310.09719    206.15319   -3205.1063   -2743.8602    44.804374    11948.298 
   97850    284.95511    205.46901   -3182.3004   -2758.4513    751.69929    11948.378 
   97900    296.28885    205.64378    -3188.126   -2747.4188    532.28188    11948.529 
   97950    306.26363    205.95833   -3198.6111   -2743.0671    149.95549    11948.678 
   98000    295.91467    205.61262   -3187.0875   -2746.9368    399.32989    11948.648 
   98050    300.66008    205.61483    -3187.161   -2739.9519    321.24034    11948.533 
   98100    306.60492    205.83943   -3194.6477   -2738.5961     164.0212    11948.311 
   98150    300.53072     205.7097   -3190.3232   -2743.3065       334.68    11947.906 
   98200    296.70884    205.66156   -3188.7186   -2747.3867    435.57131    11947.389 
   98250    290.67273    205.51782   -3183.9272   -2751.5736    629.88774    11946.847 
   98300    305.87769    205.94038   -3198.0127   -2743.0428    311.13447     11946.33 
   98350    293.47979     205.5307   -3184.3567   -2747.8278    665.43755    11945.743 
   98400    303.29967    205.84438   -3194.8126   -2743.6773    386.31842     11945.19 
   98450    292.52512    205.55975   -3185.3249   -2750.2159    614.30543    11944.603 
   98500    287.09021    205.39496   -3179.8319    -2752.807    706.48364    11944.062 
   98550    297.85706    205.65711   -3188.5703   -2745.5305    443.92648    11943.589 
   98600    311.39831    206.07198   -3202.3992   -2739.2178    132.17244    11943.061 
   98650    305.05465    205.85557   -3195.1855   -2741.4399    357.81783    11942.363 
   98700    307.50921    205.95775   -3198.5918   -2741.1952    265.17605    11941.549 
   98750    305.05777    205.81217    -3193.739   -2739.9887    299.70522    11940.605 
   98800    305.35152    205.77963   -3192.6545   -2738.4673      335.786    11939.527 
   98850    304.42759    205.71451   -3190.4838   -2737.6708    396.60565    11938.352 
   98900    296.40117     205.4446   -3181.4866   -2740.6123    591.06156    11937.131 
   98950    306.00815    205.72576   -3190.8587   -2735.6947    346.53137    11935.907 
   99000    296.58574    205.56753   -3185.5843   -2744.4355    578.69383    11934.619 
   99050     304.3311    210.71904   -3190.6346   -2737.9652    392.98637    11933.341 
   99100    299.57247    210.62905    -3187.635   -2742.0437    519.92903     11932.03 
   99150    296.33878    210.56723   -3185.5744   -2744.7929    609.23002    11930.732 
   99200    295.83463    210.53119    -3184.373   -2744.3414    618.46423    11929.492 
   99250    294.29159    210.51712    -3183.904   -2746.1676    673.57563    11928.322 
   99300    297.16183    210.48259    -3182.753   -2740.7473    770.25949    11927.255 
   99350    291.61369    210.40876    -3180.292   -2746.5388    1008.4315    11926.349 
   99400    303.22524    210.78104   -3192.7014   -2741.6768    686.09469    11925.684 
   99450    314.01219    211.08931    -3202.977   -2735.9077    356.94883     11925.11 
   99500    302.89751    210.78332   -3192.7772   -2742.2401    729.90637    11924.483 
   99550    294.17091    210.44626    -3181.542   -2743.9851     1069.241    11923.982 
   99600    305.81369    210.84562   -3194.8539   -2739.9792    696.30332    11923.742 
   99650     305.2721    210.89919   -3196.6398   -2742.5707     599.5314    11923.622 
   99700    298.46622    210.67821   -3189.2735   -2745.3277    712.47659    11923.557 
   99750    296.92915     210.5987   -3186.6235   -2744.9638    769.98302    11923.601 
   99800    295.51754     210.5425   -3184.7499     -2745.19    905.10714    11923.779 
   99850    291.97214    210.43471    -3181.157   -2746.8706    1001.8147    11924.165 
   99900    291.22697    210.43277   -3181.0923   -2747.9142    973.78949    11924.823 
   99950     295.9008    210.53248    -3184.416    -2744.286    884.30418     11925.72 
  100000    307.99656    210.95508   -3198.5028   -2740.3812    572.12419    11926.799 
Loop time of 27.0188 on 1 procs for 100000 steps with 500 atoms

Performance: 319.777 ns/day, 0.075 hours/ns, 3701.121 timesteps/s
99.5% CPU use with 1 MPI tasks x 1 OpenMP threads

MPI task timing breakdown:
Section |  min time  |  avg time  |  max time  |%varavg| %total
---------------------------------------------------------------
Pair    | 22.256     | 22.256     | 22.256     |   0.0 | 82.37
Bond    | 0.0065894  | 0.0065894  | 0.0065894  |   0.0 |  0.02
Neigh   | 0.47859    | 0.47859    | 0.47859    |   0.0 |  1.77
Comm    | 0.7925     | 0.7925     | 0.7925     |   0.0 |  2.93
Output  | 0.018465   | 0.018465   | 0.018465   |   0.0 |  0.07
Modify  | 2.7392     | 2.7392     | 2.7392     |   0.0 | 10.14
Other   |            | 0.728      |            |       |  2.69

Nlocal:    500 ave 500 max 500 min
Histogram: 1 0 0 0 0 0 0 0 0 0
Nghost:    1613 ave 1613 max 1613 min
Histogram: 1 0 0 0 0 0 0 0 0 0
Neighs:    14613 ave 14613 max 14613 min
Histogram: 1 0 0 0 0 0 0 0 0 0

Total # of neighbors = 14613
Ave neighs/atom = 29.226
Ave special neighs/atom = 0
Neighbor list builds = 578
Dangerous builds = 0

write_data      ${walker}/final_restart_file
write_data      0/final_restart_file

quit
