LAMMPS (19 May 2017)
Processor partition = 0
  using 1 OpenMP thread(s) per MPI task
# gREM variables
variable        lambda world 1000 1005 1010 1015 1020 1025 1030 1035 1040 1045 1050 1055 1060 1065 1070 1075
variable        walker world 0 1 2 3 4 5 6 7 8 9 10 11 12 13 14 15
variable        replica world 1 3 7 2 4 6 5 8 11 14 0 10 12 13 9 15

variable        T0 equal 300.0
variable        press equal 0.0

units           real
atom_style      full
pair_style      lj/cut 5.0

# LJ particles
read_data       ${walker}/restart_file
read_data       0/restart_file
  orthogonal box = (1.06733 1.06733 1.06733) to (23.9327 23.9327 23.9327)
  1 by 1 by 1 MPI processor grid
  reading atoms ...
  500 atoms
  reading velocities ...
  500 velocities
  0 = max # of 1-2 neighbors
  0 = max # of 1-3 neighbors
  0 = max # of 1-4 neighbors
  1 = max # of special neighbors

#dump            dump all xyz 1000 ${walker}/dump.xyz

fix             fxnpt all npt temp ${T0} ${T0} 1000.0 iso ${press} ${press} 10000.0
fix             fxnpt all npt temp 300 ${T0} 1000.0 iso ${press} ${press} 10000.0
fix             fxnpt all npt temp 300 300 1000.0 iso ${press} ${press} 10000.0
fix             fxnpt all npt temp 300 300 1000.0 iso 0 ${press} 10000.0
fix             fxnpt all npt temp 300 300 1000.0 iso 0 0 10000.0
fix             fxgREM all grem ${lambda} -.03 -30000 fxnpt
fix             fxgREM all grem 1000 -.03 -30000 fxnpt
thermo_modify   press fxgREM_press

thermo          50
thermo_style    custom step temp f_fxgREM pe etotal press vol
WARNING: New thermo_style command, previous thermo_modify settings will be lost (../output.cpp:705)
timestep        1.0

temper/grem     100000 1000 ${lambda} fxgREM fxnpt 10294 98392 ${walker}
temper/grem     100000 1000 1000 fxgREM fxnpt 10294 98392 ${walker}
temper/grem     100000 1000 1000 fxgREM fxnpt 10294 98392 0
Neighbor list info ...
  update every 1 steps, delay 10 steps, check yes
  max neighbors/atom: 2000, page size: 100000
  master list distance cutoff = 7
  ghost atom cutoff = 7
  binsize = 3.5, bins = 7 7 7
  1 neighbor lists, perpetual/occasional/extra = 1 0 0
  (1) pair lj/cut, perpetual
      attributes: half, newton on
      pair build: half/bin/newton
      stencil: half/bin/3d/newton
      bin: standard
Per MPI rank memory allocation (min/avg/max) = 5.725 | 5.725 | 5.725 Mbytes
Step Temp f_fxgREM PotEng TotEng Press Volume 
       0    294.81495    196.31974    -3210.658   -2772.1431   -462.78756    11954.559 
      50    263.75295    195.47661   -3182.5537   -2790.2411    359.33697    11954.375 
     100    290.70862    196.16592   -3205.5308   -2773.1238   -331.82228    11954.011 
     150    289.09041    196.21014   -3207.0048   -2777.0047   -331.24323    11953.227 
     200    270.77878    195.61659   -3187.2198   -2784.4569    147.91167    11952.007 
     250    293.07437    196.27808   -3209.2692   -2773.3433   -450.42517    11950.518 
     300    294.65739    196.33431   -3211.1436   -2772.8631   -424.55128    11948.534 
     350     298.8196    196.40613   -3213.5377   -2769.0662   -408.33113    11946.012 
     400    303.40099    196.66765   -3222.2551   -2770.9691   -534.68944    11942.965 
     450    290.82897     196.2897   -3209.6566   -2777.0705   -158.87138    11939.367 
     500    294.41135    196.34346   -3211.4486    -2773.534   -124.62501    11935.363 
     550    296.82382    196.38907   -3212.9692   -2771.4662   -123.70871        11931 
     600    289.02871     196.2108   -3207.0266   -2777.1183    93.275287    11926.288 
     650     303.8274    196.60401   -3220.1338   -2768.2135   -150.79208     11921.29 
     700    291.12767    196.24817   -3208.2723    -2775.242    246.36269    11915.945 
     750    285.61252     196.0694   -3202.3132   -2777.4863    512.11866    11910.413 
     800    294.91137    196.36368   -3212.1227   -2773.4644    438.95619    11904.834 
     850    302.91643    196.55154   -3218.3846   -2767.8193    302.56759    11899.182 
     900    303.62514    196.51007   -3217.0023   -2765.3829    279.76277    11893.384 
     950    303.42848    196.50504   -3216.8348   -2765.5079    313.43864    11887.429 
    1000    303.02173    196.53695   -3217.8983   -2767.1764    417.12393    11881.347 
    1050    299.37254     196.3395   -3211.3167   -2766.0227    662.01776    11875.187 
    1100    296.09202    196.27429    -3209.143   -2768.7285    801.31226    11869.056 
    1150    312.53746    196.68952   -3222.9839   -2758.1081    448.35846    11863.017 
    1200    305.23623    196.39516    -3213.172   -2759.1563    788.02763    11856.941 
    1250    308.69404     196.5575   -3218.5834   -2759.4244    839.78671    11850.945 
    1300    322.52393    196.99217   -3233.0724   -2753.3425    507.12299    11845.052 
    1350    304.54616    196.38003   -3212.6676   -2759.6782    1107.4651    11839.152 
    1400    301.76585    196.16552   -3205.5174   -2756.6636    1402.1171    11833.496 
    1450    298.42694    196.00496   -3200.1652   -2756.2778    1645.9181    11828.257 
    1500    312.10961    196.43148   -3214.3828   -2750.1434    1399.1916    11823.524 
    1550    326.47195      196.824   -3227.4666   -2741.8644    1059.9579    11819.193 
    1600    318.53995    196.56752   -3218.9175   -2745.1135    1318.6312    11815.102 
    1650    310.58993    196.37241   -3212.4137   -2750.4347    1547.3232    11811.377 
    1700    329.33125    196.88046   -3229.3487   -2739.4934    1179.2102    11808.093 
    1750    300.71576    195.92443   -3197.4809    -2750.189    2027.6159    11805.162 
    1800    314.89407     196.3808   -3212.6933   -2744.3122    1671.5252    11802.881 
    1850    303.33015    196.05943   -3201.9809   -2750.8003    1981.8928    11801.187 
    1900    307.40855    196.11261   -3203.7537   -2746.5068    1958.8887    11800.163 
    1950       320.04    196.40438   -3213.4794   -2737.4441    1608.7737    11799.805 
    2000    327.02676      196.692   -3223.0667   -2736.6392    1391.6054     11799.96 
    2050    318.65973    201.34968   -3211.6561   -2737.6739    1696.8395    11800.539 
    2100    304.10903    201.03936   -3201.3121    -2748.973    2046.4543    11801.679 
    2150    309.03753    201.22604   -3207.5346   -2747.8647    1860.3289    11803.542 
    2200     307.1613     201.1587   -3205.2899   -2748.4108    1839.3978    11806.069 
    2250    324.35573    201.62434   -3220.8113   -2738.3568    1316.2706    11809.194 
    2300     310.6696    201.25848    -3208.616   -2746.5185    1570.1749    11812.725 
    2350    302.49076    200.99762   -3199.9208   -2749.9887    1735.9933    11816.762 
    2400    313.75988     201.3391   -3211.3033   -2744.6093    1392.8999    11821.384 
    2450    329.62799    201.75814   -3225.2714   -2734.9747    950.53264    11826.407 
    2500    309.13981    201.13994   -3204.6646   -2744.8425     1394.831    11831.652 
    2550    305.51923    201.10578    -3203.526   -2749.0893     1347.062    11837.297 
    2600    307.48789    201.13101    -3204.367   -2747.0021    1242.6721     11843.33 
    2650    302.15241    200.99646    -3199.882   -2750.4532    1374.9325     11849.72 
    2700    303.19773    201.06321   -3202.1071   -2751.1234    1224.5416    11856.526 
    2750    313.89179    201.34692   -3211.5639   -2744.6737    861.59094    11863.662 
    2800    307.56766    201.11839   -3203.9462   -2746.4626    1048.0229    11870.971 
    2850    292.19363    200.77712   -3192.5707   -2757.9549    1242.3955    11878.535 
    2900    309.76793    201.32837   -3210.9456   -2750.1893    553.82177    11886.406 
    2950     306.3236    201.28599    -3209.533   -2753.8999    521.30575     11894.31 
    3000    308.48518    201.41151   -3213.7171   -2754.8688    362.66852    11902.178 
    3050    306.07338    201.35994   -3211.9979    -2756.737    295.30423    11909.942 
    3100      299.526    201.21062   -3207.0208   -2761.4985    359.24059    11917.578 
    3150    303.95313    201.39095   -3213.0316   -2760.9244    42.106321    11925.084 
    3200    299.31762    201.30074   -3210.0247   -2764.8124   -60.245815    11932.335 
    3250    294.91153    201.20525   -3206.8415    -2768.183    -135.6361    11939.253 
    3300    287.64802    201.04538   -3201.5127    -2773.658   -104.43233    11945.822 
    3350    274.85871    200.66192   -3188.7308   -2779.8993    188.51719    11952.077 
    3400    290.01349    201.12098   -3204.0326   -2772.6595   -311.46345    11958.103 
    3450     282.9801     200.9302   -3197.6734    -2776.762   -250.02964    11963.726 
    3500    279.97251    200.89865   -3196.6217   -2780.1838   -259.37699    11968.933 
    3550    298.75328    201.41017   -3213.6723   -2769.2994    -821.1005    11973.685 
    3600    281.33027    200.83219   -3194.4062   -2775.9487   -354.43793    11977.788 
    3650    290.53778    201.14214    -3204.738   -2772.5851   -584.16022    11981.389 
    3700    291.96023    201.30848   -3210.2827   -2776.0139   -675.00544    11984.411 
    3750    282.60778    201.03139   -3201.0464   -2780.6888   -527.89653    11986.814 
    3800    283.99084    201.15175   -3205.0583   -2782.6434   -704.32617    11988.637 
    3850    275.63664    200.96597   -3198.8655   -2788.8769    -629.6339    11989.835 
    3900    290.10075    201.39277   -3213.0924   -2781.5896   -1083.4311    11990.404 
    3950    284.48148     201.1262   -3204.2065   -2781.0619   -921.95523    11990.159 
    4000    285.65125    201.21149   -3207.0497   -2782.1652   -861.97669    11989.115 
    4050    275.66595    200.96068   -3198.6894   -2788.6571   -529.69437    11987.349 
    4100    272.49655    200.95772   -3198.5907   -2793.2727   -368.18326    11985.016 
    4150     276.3854    201.10294   -3203.4312   -2792.3288   -454.39513    11982.212 
    4200    288.81612    201.41074   -3213.6912   -2784.0991   -786.59441     11978.89 
    4250    285.84047    201.37043   -3212.3478   -2787.1818   -623.30342    11974.898 
    4300    279.20796    201.19079   -3206.3598   -2791.0591   -351.56776    11970.315 
    4350    280.68223    201.16861   -3205.6202   -2788.1267   -378.55556    11965.251 
    4400    273.17516    200.89075   -3196.3584   -2790.0311   -95.094701    11959.728 
    4450    277.15801    201.02375   -3200.7918   -2788.5403   -92.296669    11953.869 
    4500    283.15193    201.23311   -3207.7702   -2786.6032   -252.63038    11947.701 
    4550    300.13927     201.7348   -3224.4934    -2778.059   -677.19142    11941.119 
    4600    306.60527    201.81883   -3227.2945   -2771.2424   -696.52911    11933.915 
    4650    287.96976    201.28447   -3209.4825   -2781.1493   -51.195561    11926.088 
    4700      282.685    201.13275    -3204.425   -2783.9525    247.14893    11917.933 
    4750    291.39668     201.3182   -3210.6066   -2777.1761     151.2157    11909.621 
    4800    296.41058    201.41899   -3213.9663    -2773.078     162.7704    11901.115 
    4850    292.92199     201.3586   -3211.9533   -2776.2541    343.08215    11892.424 
    4900    287.18541     201.1781   -3205.9365     -2778.77    575.89187    11883.642 
    4950    300.15163    201.54428   -3218.1427   -2771.6899    433.53404    11874.845 
    5000     284.4179    201.11253    -3203.751    -2780.701    996.69047    11866.049 
    5050     294.8998    196.39361   -3213.1205   -2774.4794    892.64473    11857.457 
    5100    302.02025    196.61903   -3220.6342    -2771.402    805.49306    11849.054 
    5150    293.51786    196.30498   -3210.1661   -2773.5805    1111.8222     11840.81 
    5200    300.37424     196.4472   -3214.9065   -2768.1226    1078.3293     11832.82 
    5250    308.20239    196.61393   -3220.4645   -2762.0368     978.9337    11825.107 
    5300    326.68986    197.09104   -3236.3679   -2750.4415    601.66428    11817.559 
    5350    293.54337    196.15148   -3205.0495    -2768.426    1576.7218    11810.094 
    5400    317.25052    196.70836   -3223.6119   -2751.7258    1181.8095    11803.073 
    5450    316.12547    196.70373   -3223.4578   -2753.2451    1354.7111    11796.381 
    5500    314.20923    196.61214   -3220.4047   -2753.0423    1576.4411    11790.053 
    5550    289.73224    195.88347   -3196.1158    -2765.161    2286.0176    11784.261 
    5600    323.42509    196.86983   -3228.9943    -2747.924     1488.026    11779.248 
    5650    310.23101    196.54025   -3218.0082   -2756.5631    1820.3511    11774.741 
    5700    319.73054    196.75908   -3225.3027   -2749.7278     1653.298    11770.804 
    5750    313.90017    196.61552   -3220.5173   -2753.6146    1847.3483    11767.423 
    5800    317.80538    196.70029   -3223.3432   -2750.6317    1866.7951    11764.652 
    5850    320.59356    196.87356   -3229.1186     -2752.26    1709.9767    11762.528 
    5900    310.12248    196.56782   -3218.9275   -2757.6438    2003.7098    11760.965 
    5950    310.89565    196.48703   -3216.2343   -2753.8006    2156.3881    11760.085 
    6000    313.71953    196.65735   -3221.9117   -2755.2776    2010.3657    11759.987 
    6050    302.58675    196.37064   -3212.3548   -2762.2799    2198.8581    11760.609 
    6100    314.39032    196.59799   -3219.9329   -2752.3012    1910.8719    11761.996 
    6150    326.11508    196.87698   -3229.2328   -2744.1613    1539.5043    11764.048 
    6200    310.34919    196.44224   -3214.7413   -2753.1204    1897.7248    11766.596 
    6250    321.34441    196.82041   -3227.3469   -2749.3714    1619.2795     11769.74 
    6300    308.21866     196.4565   -3215.2165   -2756.7646    1915.6668    11773.429 
    6350    312.18813    196.63398   -3221.1328   -2756.7766    1726.9751     11777.74 
    6400    294.57824    196.17438   -3205.8125   -2767.6497    2011.1896    11782.656 
    6450    314.90503    196.75231    -3225.077   -2756.6796    1340.8308     11788.23 
    6500    316.24394    196.80473   -3226.8243   -2756.4354    1236.1254    11794.213 
    6550    309.83065    196.56617   -3218.8723   -2758.0227    1440.1013    11800.521 
    6600     305.3665    196.43771   -3214.5903   -2760.3808    1486.0958    11807.254 
    6650    312.30232    196.67101    -3222.367    -2757.841     1164.364    11814.414 
    6700    305.63931    196.53586    -3217.862   -2763.2467    1157.0619    11821.871 
    6750    321.20923    196.87904   -3229.3013   -2751.5269    679.96084    11829.571 
    6800    299.25458    196.38696   -3212.8987   -2767.7802    1077.4412    11837.344 
    6850    293.80268    196.25174   -3208.3912    -2771.382    1113.4359     11845.33 
    6900    298.61869    196.43482    -3214.494   -2770.3214    786.49741    11853.569 
    6950    288.95441    196.17464   -3205.8215   -2776.0237    872.64294    11861.927 
    7000    296.73102    196.43824   -3214.6078   -2773.2429    596.70898    11870.397 
    7050    294.08523    196.38033   -3212.6776   -2775.2481    495.98624    11878.895 
    7100      311.097    196.82578   -3227.5259   -2764.7927   -37.010343    11887.289 
    7150    298.65516    196.46976   -3215.6588   -2771.4318    155.42515    11895.386 
    7200     293.8502    196.31694   -3210.5648   -2773.4849    140.12334    11903.251 
    7250    280.42185    195.97828   -3199.2761   -2782.1698    377.95721    11910.886 
    7300     294.0239    196.39422   -3213.1405   -2775.8023   -112.78571    11918.379 
    7350    298.68008    196.59893   -3219.9643   -2775.7003   -386.11564    11925.513 
    7400    281.49066    196.10573   -3203.5245   -2784.8284    -18.12004    11932.164 
    7450    291.31139    196.40678   -3213.5593   -2780.2557   -289.09606    11938.475 
    7500     291.6802    196.49359   -3216.4529   -2782.6007   -375.53364    11944.355 
    7550    295.47874    196.50607   -3216.8689   -2777.3666   -503.37222    11949.726 
    7600    286.66145    196.24787   -3208.2622    -2781.875   -346.74513    11954.531 
    7650    286.69246     196.2346   -3207.8199   -2781.3866   -396.39879    11958.847 
    7700    290.18958     196.3326   -3211.0866   -2779.4516   -538.79688    11962.646 
    7750    291.33127    196.38439   -3212.8129   -2779.4797    -620.9304    11965.857 
    7800    293.42726    196.54608   -3218.2025   -2781.7517   -725.31085    11968.433 
    7850    280.33012    196.21977   -3207.3257   -2790.3559   -459.75514    11970.352 
    7900      280.994     196.1748   -3205.8268   -2787.8695   -509.49555    11971.721 
    7950    282.51757    196.25135   -3208.3782   -2788.1548    -569.2727    11972.529 
    8000    286.34095    196.38113   -3212.7043   -2786.7938   -618.59339    11972.753 
    8050    282.99466    201.28931   -3209.6436   -2788.7105   -516.59266    11972.379 
    8100    276.03121    201.07926   -3202.6419   -2792.0664   -393.77135    11971.456 
    8150    283.22984    201.28604   -3209.5348   -2788.2519   -589.53452    11970.039 
    8200    292.51265    201.51762   -3217.2541   -2782.1637   -717.58394    11968.044 
    8250    272.68711    200.94298   -3198.0995   -2792.4981   -128.58283    11965.432 
    8300    285.80924    201.28344   -3209.4481   -2784.3285   -435.20859    11962.433 
    8350    288.16519    201.31019   -3210.3395   -2781.7157   -549.04207     11958.96 
    8400    298.46013    201.66654    -3222.218   -2778.2812   -799.65979    11954.917 
    8450    287.19864    201.28754   -3209.5848   -2782.3986   -372.02316    11950.209 
    8500    290.24998    201.36106   -3212.0353   -2780.3104   -388.97179        11945 
    8550    282.01591    201.10302   -3203.4338   -2783.9565     -97.5905    11939.339 
    8600    282.03573    200.95936   -3198.6454   -2779.1387    78.667921    11933.373 
    8650    304.92651    201.62785   -3220.9285   -2767.3734   -407.27256    11927.156 
    8700    286.32411    201.09821   -3203.2737   -2777.3883    233.13501    11920.517 
    8750    307.40896    201.64482   -3221.4941   -2764.2466   -95.161255    11913.664 
    8800    300.72086    201.31779   -3210.5932   -2763.2937    313.85939     11906.52 
    8850    283.94769    200.79985   -3193.3283   -2770.9776     919.5169    11899.288 
    8900    302.05103    201.25589   -3208.5296   -2759.2516    616.57241     11892.22 
    8950    301.41509     201.0876   -3202.9199   -2754.5878    845.50883    11885.229 
    9000    291.04177     200.7677   -3192.2566   -2759.3541    1209.9933     11878.42 
    9050    305.67786    206.16608    -3205.536   -2750.8633     910.1717    11871.922 
    9100      300.263    205.87761   -3195.9202   -2749.3018    1235.4768    11865.678 
    9150     305.9746    206.00957   -3200.3189   -2745.2049    1186.3178    11859.784 
    9200     299.6431    205.72719   -3190.9064     -2745.21    1497.4988    11854.246 
    9250    304.66315    205.82644   -3194.2148   -2741.0514    1520.7255    11849.202 
    9300    318.07471    206.25714   -3208.5714   -2735.4594    1312.2218    11844.659 
    9350     311.6555    205.98311   -3199.4371   -2735.8731    1573.5509    11840.533 
    9400    320.39172    206.22485    -3207.495   -2730.9366    1300.7588    11836.914 
    9450    316.98627    206.12487   -3204.1623   -2732.6692    1468.9154    11833.706 
    9500    312.48244    205.91457   -3197.1523   -2732.3583    1800.3409    11830.977 
    9550    311.73221    205.82339    -3194.113    -2730.435    1909.2699    11828.885 
    9600    312.09805    205.84898    -3194.966   -2730.7438    1848.4711    11827.475 
    9650    306.73668    205.72602   -3190.8674   -2734.6198    1877.4134    11826.734 
    9700     322.1732    206.21907   -3207.3024   -2728.0942    1442.1564    11826.633 
    9750    309.28612    205.82008   -3194.0026   -2733.9629    1884.8461    11827.047 
    9800    308.91136    205.75561   -3191.8537   -2732.3715    2024.2094     11828.13 
    9850    312.51936    205.90181   -3196.7269    -2731.878    1786.0441    11829.947 
    9900    320.42992    206.10338    -3203.446   -2726.8308    1487.3479    11832.371 
    9950    310.23945    205.67067   -3189.0222   -2727.5645    1801.8186    11835.303 
   10000    320.58636    206.05074   -3201.6912   -2724.8433    1584.5055     11838.82 
   10050    303.90668    200.59063   -3186.3545   -2734.3163    1959.9571    11842.882 
   10100     306.2515    200.71997   -3190.6658   -2735.1399    1765.2563    11847.613 
   10150    295.53171    200.47972   -3182.6572   -2743.0762    1926.5579    11852.983 
   10200    318.84964    201.05054   -3201.6847   -2727.4201    1344.9882    11858.989 
   10250    320.56301    201.14354   -3204.7846   -2727.9714    1133.0913    11865.395 
   10300    320.04495    201.28341    -3209.447   -2733.4044    976.97816    11872.053 
   10350    305.52372     200.7825   -3192.7501   -2738.3067    1223.5838    11878.926 
   10400    322.10051    201.23591   -3207.8637   -2728.7636    689.91058    11886.068 
   10450    306.08101    200.74121   -3191.3737   -2736.1014    1040.2098    11893.295 
   10500    301.68509    200.65483   -3188.4944   -2739.7607    1144.4665    11900.729 
   10550    307.02256    200.85515   -3195.1718    -2738.499    846.92113    11908.426 
   10600    311.09165    201.03817   -3201.2724   -2738.5471    598.30622    11916.236 
   10650    305.87071    200.89745   -3196.5818   -2741.6223    647.68972    11924.053 
   10700    301.45211    200.79317   -3193.1057   -2744.7186    610.46837    11931.892 
   10750    310.53057    201.06821   -3202.2737    -2740.383    236.68662    11939.726 
   10800    310.12093    201.04909   -3201.6364    -2740.355    185.76496    11947.376 
   10850    309.00033    201.02577    -3200.859   -2741.2444    112.19113    11954.782 
   10900    291.93081    200.54646   -3184.8819    -2750.657    427.77435    11961.959 
   10950    279.66177    200.18588   -3172.8626   -2756.8869    654.05518     11969.04 
   11000    287.89842    200.43271   -3181.0902   -2752.8631    369.61647     11976.15 
   11050      294.791    205.64719   -3188.2398   -2749.7605    95.613643    11983.176 
   11100    296.40858    205.73108   -3191.0361   -2750.1508   -71.419553    11989.946 
   11150    295.91887    205.72985   -3190.9949    -2750.838   -228.47671    11996.367 
   11200    299.01808    205.78228   -3192.7428    -2747.976   -436.24195    12002.364 
   11250    280.95688    205.23819   -3174.6062   -2756.7041   -34.389745    12007.867 
   11300    280.61482    205.34365   -3178.1215   -2760.7283   -104.39242    12013.028 
   11350    291.84465    205.65023   -3188.3411   -2754.2443   -442.74705    12017.841 
   11400    280.13537    205.32088   -3177.3628   -2760.6826   -248.34458    12022.171 
   11450    298.04359    205.85941   -3195.3137   -2751.9965      -819.54    12026.037 
   11500    292.09458    205.67141    -3189.047   -2754.5785   -683.39858    12029.223 
   11550    277.55809    205.23225   -3174.4084   -2761.5618    -290.6544     12031.77 
   11600    301.58875    206.00554   -3200.1848   -2751.5944   -1022.6972    12033.816 
   11650    299.31175    205.90726   -3196.9087   -2751.7052   -1010.1111    12035.083 
   11700    281.98219     205.4196   -3180.6533   -2761.2262   -524.93115    12035.549 
   11750    276.85437     205.2245   -3174.1499   -2762.3501   -409.14493     12035.45 
   11800    282.26304    205.43512   -3181.1707   -2761.3259   -496.94455    12034.857 
   11850    273.89272    205.18293   -3172.7643   -2765.3697   -225.84249    12033.766 
   11900    274.94875    205.22688   -3174.2295   -2765.2641   -255.04411    12032.287 
   11950    280.33428    205.31656   -3177.2187   -2760.2427    -254.9689     12030.42 
   12000    288.62044    205.51993   -3183.9976   -2754.6965   -404.94732    12028.144 
   12050     286.3903    205.45502   -3181.8341   -2755.8502   -333.60324    12025.415 
   12100    289.82142     205.5768   -3185.8934    -2754.806   -362.18847    12022.248 
   12150    287.03712    205.53054   -3184.3513   -2757.4054   -244.16124    12018.629 
   12200    283.86944    205.41509   -3180.5028   -2758.2686   -118.10071    12014.628 
   12250    296.79625    205.79322   -3193.1073   -2751.6454   -423.29298    12010.291 
   12300    289.84053    205.52227   -3184.0756   -2752.9598   -127.38058    12005.507 
   12350    288.12274    205.50849   -3183.6163   -2755.0556   -73.472944    12000.386 
   12400    287.02853     205.5196   -3183.9867   -2757.0535   -85.414805    11994.986 
   12450    292.16034    205.62004   -3187.3347   -2752.7683   -127.72495      11989.3 
   12500    294.24203    205.60534   -3186.8446   -2749.1819   -50.320588    11983.324 
   12550    296.16873    205.65544   -3188.5147   -2747.9861    30.130169    11977.077 
   12600    295.73058    205.58849   -3186.2829   -2746.4061    309.99237    11970.607 
   12650    295.03182    205.58694   -3186.2313   -2747.3938    403.71101    11964.054 
   12700    305.16553    205.87626   -3195.8753   -2741.9647    185.59841    11957.449 
   12750    298.45371    205.70557   -3190.1858   -2746.2585    532.33036    11950.723 
   12800    294.56029    205.45541    -3181.847   -2743.7109    824.18151    11944.026 
   12850    303.49971     205.7155   -3190.5165   -2739.0837    609.78755    11937.504 
   12900    312.35979    206.00873    -3200.291   -2735.6795    441.23836    11931.058 
   12950    306.34489    205.72258   -3190.7527   -2735.0879    824.75333    11924.609 
   13000    315.95074    205.99088   -3199.6958   -2729.7431    699.86647    11918.311 
   13050     311.3629    200.88652   -3196.2175   -2733.0887    825.57855    11912.133 
   13100     303.4597    200.68569    -3189.523   -2738.1497    1120.0548    11906.125 
   13150    306.03695     200.6883     -3189.61   -2734.4032    1175.4811    11900.422 
   13200     304.2449    200.61336    -3187.112   -2734.5708    1291.1989    11895.052 
   13250    303.55913    200.64361   -3188.1203   -2736.5991    1308.0883    11890.079 
   13300    318.24067    201.07896   -3202.6321   -2729.2732    980.85455    11885.493 
   13350    312.28919    200.83358   -3194.4526   -2729.9461    1283.9109    11881.173 
   13400    316.47713    200.86957   -3195.6522   -2724.9165    1333.2321    11877.234 
   13450     319.6017    200.92011   -3197.3369   -2721.9535    1399.6972    11873.701 
   13500      314.729    200.84134   -3194.7112   -2726.5757    1589.1227     11870.61 
   13550     306.6835    200.57632   -3185.8772   -2729.7087    1798.6914     11868.04 
   13600    313.83711    200.73516   -3191.1719    -2724.363    1560.4325    11866.089 
   13650    311.37994    200.73522   -3191.1739   -2728.0199    1594.3263     11864.67 
   13700    309.38231     200.6642   -3188.8065   -2728.6238    1753.6521    11863.784 
   13750     325.7888     201.0188   -3200.6267   -2716.0406    1358.3448    11863.477 
   13800     326.6445     201.1025   -3203.4168   -2717.5578    1254.6326    11863.565 
   13850    313.82895    200.76994   -3192.3313   -2725.5346     1543.836     11864.01 
   13900    309.97121    200.73111   -3191.0371   -2729.9784     1675.674    11864.941 
   13950    308.18894      200.697      -3189.9   -2731.4923    1688.5073    11866.428 
   14000    315.84894    200.93063   -3197.6877   -2727.8863    1417.7309    11868.464 
   14050    315.05217     200.9535     -3198.45   -2729.8337    1483.8692    11870.931 
   14100    304.50481    200.57327   -3185.7756   -2732.8478    1763.4686     11873.85 
   14150    306.13243    200.63651   -3187.8836   -2732.5348    1599.8167    11877.345 
   14200    310.66861     200.8074   -3193.5801   -2731.4841    1420.9254    11881.356 
   14250    312.86593    200.76843   -3192.2811   -2726.9167    1355.3029    11885.783 
   14300     306.5154    200.65344    -3188.448   -2732.5296    1388.1769    11890.595 
   14350    317.81995    201.10276   -3203.4254   -2730.6923     996.7844    11895.781 
   14400    317.60845     201.1121   -3203.7365    -2731.318    897.39231    11901.164 
   14450    308.05954    200.80124   -3193.3745   -2735.1593    1026.7823    11906.695 
   14500    317.95942    201.14065   -3204.6884   -2731.7479    673.63388    11912.397 
   14550    301.03788    200.61386   -3187.1287   -2739.3576     1098.726    11918.155 
   14600    288.51026    200.25355   -3175.1184   -2745.9813    1263.5113    11924.162 
   14650    320.81973    201.33405   -3211.1351     -2733.94    182.48954    11930.417 
   14700    311.92556    201.09547   -3203.1824   -2739.2167     357.8039    11936.478 
   14750    304.45137    200.81367   -3193.7891   -2740.9407    516.02906    11942.392 
   14800    312.52579    201.08831   -3202.9436   -2738.0852    171.23717    11948.218 
   14850    291.79229    200.54556    -3184.852   -2750.8331    581.04849    11953.848 
   14900    310.08308    201.04902    -3201.634   -2740.4089    29.508427    11959.395 
   14950    297.65221    200.68261   -3189.4205   -2746.6854    200.54955    11964.669 
   15000    291.70549    200.55873   -3185.2911   -2751.4013    197.87028    11969.713 
   15050    306.63831    196.00522   -3200.1741   -2744.0728   -274.35855    11974.515 
   15100    297.86634    195.75292   -3191.7639   -2748.7103   -117.75372    11978.862 
   15150    288.90628    195.67058   -3189.0192    -2759.293   -36.095882    11982.801 
   15200    298.55429    195.92979   -3197.6597   -2753.5829   -364.61738    11986.386 
   15250    298.07597    195.96399   -3198.7998   -2755.4343   -397.03066     11989.47 
   15300     298.9267    195.90119   -3196.7063   -2752.0755   -380.78479    11992.001 
   15350    291.74492    195.79153   -3193.0511   -2759.1027   -287.71052     11994.02 
   15400    316.10269     196.4185   -3213.9499   -2743.7711     -857.734    11995.532 
   15450    291.73968    195.83758   -3194.5861   -2760.6454   -327.83076    11996.336 
   15500    292.55679    195.87396   -3195.7988   -2760.6427   -307.78469    11996.611 
   15550    288.75827    195.75316   -3191.7721   -2762.2661   -270.28651    11996.443 
   15600    307.33675    196.29099   -3209.6998   -2752.5597   -718.51569    11995.796 
   15650    288.66849    195.78556    -3192.852   -2763.4795   -196.82785     11994.53 
   15700    288.73916    195.80408   -3193.4695   -2763.9918   -142.91644    11992.837 
   15750    286.76696    195.76854   -3192.2846   -2765.7405   -160.98559    11990.791 
   15800    303.18317    196.30734   -3210.2447   -2759.2827   -692.80642    11988.336 
   15850    295.72716    196.03583   -3201.1943   -2761.3226   -486.81755    11985.263 
   15900    293.66127     196.0072     -3200.24   -2763.4411    -391.0347    11981.638 
   15950    299.44495    196.24238   -3208.0795   -2762.6778   -478.60826    11977.526 
   16000    284.93454     195.8374   -3194.5798   -2770.7613    21.483478    11972.924 
   16050     295.0808     196.1256   -3204.1868   -2765.2765   -154.93997    11968.031 
   16100    289.68028    195.92466   -3197.4887   -2766.6113   -27.989592    11962.825 
   16150     309.4012    196.49185   -3216.3949   -2756.1841   -453.97062      11957.3 
   16200    288.95349    195.82411   -3194.1371   -2764.3407    176.43248    11951.365 
   16250     310.6521     196.5278   -3217.5934   -2755.5219    -307.1273    11945.183 
   16300    295.65233    196.05489   -3201.8296   -2762.0692    120.32257    11938.645 
   16350    299.70085    196.20044   -3206.6813    -2760.899    118.78614    11931.888 
   16400    308.27281    196.48236   -3216.0787   -2757.5462   -6.4086662    11924.953 
   16450    296.63614    196.24207    -3208.069   -2766.8452    307.74206    11917.794 
   16500    300.62167    196.23569   -3207.8564   -2760.7045    368.07075    11910.536 
   16550    295.71097    196.12328   -3204.1092   -2764.2615    581.22825    11903.248 
   16600    298.69959    196.24476   -3208.1586   -2763.8656    570.51975    11895.993 
   16650    310.10037    196.52965   -3217.6549   -2756.4041    445.38162    11888.775 
   16700    303.61209     196.3755   -3212.5166   -2760.9167    650.54299    11881.568 
   16750    301.65664     196.3781   -3212.6032   -2763.9118    732.71048    11874.438 
   16800    313.80145    196.68247   -3222.7491   -2755.9932    556.05263     11867.43 
   16850    309.76928    196.59552   -3219.8506   -2759.0923    757.87552    11860.476 
   16900    290.42492    196.00536   -3200.1788   -2768.1937    1280.2417    11853.681 
   16950    299.51732    196.29547   -3209.8491   -2764.3398    1088.8266    11847.272 
   17000    310.11286    196.48841   -3216.2804    -2755.011    942.41295    11841.185 
   17050    305.33321    196.42652   -3214.2174   -2760.0574    1068.6783    11835.352 
   17100    308.51329    196.50006   -3216.6687   -2757.7786    1065.9061    11829.783 
   17150    310.38981    196.56396   -3218.7987   -2757.1174     1049.153      11824.5 
   17200    310.98191    196.67144   -3222.3812   -2759.8192     1114.377    11819.493 
   17250    303.63793    196.44516   -3214.8387   -2763.2002    1437.1069     11814.79 
   17300    313.06865    196.73828   -3224.6092   -2758.9433    1207.2255    11810.514 
   17350    312.72166    196.81082   -3227.0272   -2761.8774    1287.0726    11806.592 
   17400    300.18149    196.44067   -3214.6892   -2768.1919    1650.5721     11803.08 
   17450    303.40712     196.5523   -3218.4099   -2767.1148    1562.0568    11800.102 
   17500    304.32378    196.53376   -3217.7919   -2765.1333    1540.0007    11797.651 
   17550    305.55298    196.56525   -3218.8415   -2764.3546    1519.6231    11795.702 
   17600    304.06489    196.55783   -3218.5943   -2766.3208    1551.5367    11794.231 
   17650     323.1307     197.1739   -3239.1301   -2758.4977    982.01966    11793.219 
   17700    308.06951    196.74698   -3224.8993   -2766.6693     1299.001    11792.451 
   17750    316.58302    197.07962   -3235.9874   -2765.0941    1060.4865    11791.981 
   17800     303.8282    196.63798    -3221.266   -2769.3445    1484.0966    11791.791 
   17850    300.78351    196.55566   -3218.5219   -2771.1292    1538.6638    11792.041 
   17900    297.03122     196.5126   -3217.0866   -2775.2752      1518.89    11792.769 
   17950    299.41599    196.76724   -3225.5747   -2780.2161    1329.2875    11793.946 
   18000    319.47533    197.29734   -3243.2446   -2768.0493    814.97017    11795.461 
   18050    304.90687    196.83859   -3227.9531   -2774.4272    1149.2784    11797.122 
   18100    305.91128    196.91636   -3230.5454   -2775.5256    1074.5067    11799.008 
   18150    303.11548    196.75703   -3225.2342   -2774.3729    1071.8286    11801.129 
   18200    306.09875     196.9382   -3231.2734   -2775.9747    885.54395    11803.446 
   18250    299.72265    196.82536   -3227.5118   -2781.6971    968.12062    11805.901 
   18300    291.63101    196.62242   -3220.7472   -2786.9682    1086.9959    11808.544 
   18350    300.71318    196.92866   -3230.9554   -2783.6674    836.26435     11811.39 
   18400     294.7047    196.76197   -3225.3988   -2787.0479    981.93997    11814.347 
   18450    297.27686    196.79332   -3226.4441   -2784.2673    913.58424    11817.471 
   18500    298.84954    196.87812   -3229.2707   -2784.7547    843.26655    11820.735 
   18550    278.31462    196.36177    -3212.059   -2798.0871    1311.8216    11824.132 
   18600    289.32726    196.62637   -3220.8791   -2790.5267     869.0661    11827.835 
   18650    285.54126    196.55864   -3218.6212   -2793.9002    795.34846    11831.678 
   18700     295.9209    196.95034    -3231.678   -2791.5181    424.43287    11835.575 
   18750    290.59008    196.79805   -3226.6017   -2794.3709    448.68593    11839.379 
   18800    286.27491    196.64582   -3221.5275   -2795.7152    436.27549    11843.081 
   18850     296.3394    196.84924    -3228.308   -2787.5256     187.7844    11846.672 
   18900    297.22825    196.89751   -3229.9169   -2787.8124    148.80536    11850.037 
   18950     289.9385    196.74107   -3224.7024   -2793.4408    280.39024    11853.161 
   19000    299.55649    197.07833   -3235.9442   -2790.3766    19.046156    11856.082 
   19050    294.77317    196.92608   -3230.8694   -2792.4166    130.93723    11858.714 
   19100    273.69882     196.3437   -3211.4567   -2804.3505    655.44309    11861.115 
   19150    285.65116     196.6529   -3221.7634   -2796.8789    352.74325    11863.493 
   19200    289.44624    196.83187    -3227.729   -2797.1996    126.97485    11865.756 
   19250    284.29402    196.63668   -3221.2228    -2798.357      219.799    11867.784 
   19300    279.63834    196.52114   -3217.3712   -2801.4304    295.11392    11869.616 
   19350    299.26775    197.05065   -3235.0217   -2789.8836   -184.17961    11871.269 
   19400    285.94068    196.74451    -3224.817   -2799.5019    168.67241    11872.566 
   19450    287.39076    196.83841   -3227.9469   -2800.4749    192.60041    11873.613 
   19500    285.52716    196.78207   -3226.0688   -2801.3688    239.22045    11874.474 
   19550    289.40474    196.85258   -3228.4192   -2797.9516     169.5309    11875.145 
   19600    293.39451    196.90908   -3230.3027   -2793.9006    35.558388    11875.612 
   19650     295.7949    196.98485   -3232.8282   -2792.8558    -45.27901    11875.799 
   19700    277.34422    196.39079   -3213.0264   -2800.4979    496.78323    11875.692 
   19750    293.02321    196.82055   -3227.3518    -2791.502    114.22098    11875.507 
   19800    302.76843    197.05141   -3235.0469   -2784.7018   -123.24526    11875.092 
   19850    275.94799    196.21258    -3207.086   -2796.6343    643.20432    11874.377 
   19900    293.96985    196.77736   -3225.9119   -2788.6541    230.25552    11873.643 
   19950    291.53653    196.74561   -3224.8536   -2791.2151    266.12392    11872.786 
   20000    287.22991    196.61067   -3220.3555   -2793.1228    397.10362    11871.781 
   20050    288.10264    196.57019   -3219.0064   -2790.4755    404.22506    11870.688 
   20100    291.09243    196.60902   -3220.3005   -2787.3226     340.1747    11869.537 
   20150    300.74944    196.88793   -3229.5978   -2782.2558     66.49807    11868.276 
   20200    295.63759    196.65497   -3221.8322   -2782.0937    238.13422    11866.773 
   20250    294.86349    196.65127    -3221.709   -2783.1219    341.78064    11865.104 
   20300    287.71564    196.46723   -3215.5742    -2787.619    599.06298    11863.361 
   20350    306.12697    196.98914   -3232.9713   -2777.6306    235.57366    11861.614 
   20400    292.55579    196.45577   -3215.1923   -2780.0377     709.5967     11859.75 
   20450    286.37597    196.27347   -3209.1157   -2783.1531    879.08931    11857.953 
   20500    304.33058    196.78924   -3226.3078   -2773.6392    387.61652    11856.304 
   20550    301.04319    196.59612   -3219.8707   -2772.0918    585.18441    11854.598 
   20600    297.30064    196.48882   -3216.2941    -2774.082    829.40243    11852.907 
   20650    292.68915    196.27655   -3209.2182   -2773.8653    1111.5148    11851.366 
   20700    298.92534    196.49923    -3216.641   -2772.0122    946.54419    11850.114 
   20750    303.65332    196.61635   -3220.5449   -2768.8837    793.94675    11849.072 
   20800    291.90092    196.28517   -3209.5058   -2775.3253    1132.3003    11848.154 
   20850    296.56547    196.35513   -3211.8375   -2770.7189    1081.7531    11847.525 
   20900    323.89489    197.14555   -3238.1851    -2756.416    396.37645    11847.115 
   20950    306.22929    196.60672   -3220.2239    -2764.731    920.25168    11846.654 
   21000      315.838      196.807   -3226.9001    -2757.115    745.99793    11846.312 
   21050    319.77453    196.87155   -3229.0516   -2753.4112    646.33877    11846.059 
   21100    292.00674    196.02242   -3200.7473   -2766.4094    1413.4517    11845.878 
   21150    288.04336    195.91509   -3197.1698   -2768.7271    1490.0268    11846.107 
   21200    306.41795    196.39909   -3213.3028   -2757.5294    1009.8396    11846.763 
   21250    295.48779    196.09003    -3203.001   -2763.4853    1321.0485    11847.657 
   21300    307.79585    196.37005   -3212.3349   -2754.5119    1038.0626    11848.892 
   21350    310.44564    196.49248   -3216.4162   -2754.6518    933.34034    11850.352 
   21400    316.71631    196.66924   -3222.3079   -2751.2164    791.92476    11851.959 
   21450    301.77012    196.17838   -3205.9459   -2757.0857    1144.6192    11853.672 
   21500    313.26909     196.4624   -3215.4133   -2749.4493    843.62715    11855.605 
   21550     307.9061    196.32318   -3210.7726   -2752.7856    906.28873    11857.667 
   21600    299.56332    196.17061   -3205.6869   -2760.1091     994.3878    11859.872 
   21650    316.09476    196.59499   -3219.8329   -2749.6659    618.17087     11862.23 
   21700    291.01895     195.9289   -3197.6299   -2764.7612    1211.9927    11864.624 
   21750    301.22194     196.3085   -3210.2832   -2762.2384    896.35745    11867.262 
   21800    309.64623     196.4548   -3215.1601   -2754.5848    695.64568    11870.049 
   21850    307.84808    196.29187    -3209.729   -2751.8283     739.3248     11872.87 
   21900    308.28834    196.21133   -3207.0443   -2748.4887    697.00695    11875.728 
   21950    314.13489    196.39227   -3213.0757   -2745.8239    484.28634    11878.583 
   22000    307.85532    196.23639   -3207.8796   -2749.9682    545.47293    11881.362 
   22050    315.09156    196.57496   -3219.1654   -2750.4906    257.03077    11884.059 
   22100    306.13964    196.22874   -3207.6248   -2752.2652    491.23201    11886.587 
   22150    308.33389    196.22088   -3207.3628   -2748.7395    456.47624    11889.002 
   22200    292.60179    195.85263   -3195.0877   -2759.8647    908.59575    11891.329 
   22250     283.3671    195.63751   -3187.9169   -2766.4298    1089.4617    11893.807 
   22300    311.18457    196.37759   -3212.5864   -2749.7229     371.4405    11896.488 
   22350    303.67684    196.20247   -3206.7488   -2755.0526    564.02628    11899.079 
   22400    305.92806    196.33651    -3211.217   -2756.1722    419.32428    11901.606 
   22450    309.13541    196.42855    -3214.285   -2754.4695    313.22076    11904.008 
   22500    289.56617    195.84865   -3194.9551   -2764.2474    696.25533    11906.269 
   22550    312.65348    196.43357   -3214.4522   -2749.4038    43.852173      11908.5 
   22600    293.67227    195.95344   -3198.4479   -2761.6327    559.43745    11910.495 
   22650    297.83932     196.0419   -3201.3965   -2758.3831    586.69355    11912.433 
   22700    305.37838    196.28753   -3209.5844   -2755.3572    255.00119    11914.352 
   22750    295.36948    196.04498   -3201.4994   -2762.1597    316.57335    11916.096 
   22800    311.36581    196.40775   -3213.5916   -2750.4586    18.657645    11917.642 
   22850    304.15695    196.23227   -3207.7422   -2755.3318    271.07846    11918.912 
   22900    311.06713    196.45847   -3215.2822   -2752.5934    114.83676    11919.981 
   22950    292.06732    195.86248    -3195.416    -2760.988    577.74954    11920.835 
   23000    300.19319     196.1597   -3205.3235   -2758.8089    345.60183    11921.622 
   23050    317.97834    196.66907   -3222.3022   -2749.3335   -147.14713    11922.269 
   23100    314.30437    196.55829   -3218.6096   -2751.1057   -93.418326    11922.545 
   23150    300.25551    196.22903   -3207.6342   -2761.0269    213.93783    11922.469 
   23200     303.7527    196.29827   -3209.9422   -2758.1331    97.452246    11922.182 
   23250    299.32741    196.16429   -3205.4764   -2760.2496    187.25566    11921.654 
   23300    289.92003    195.87298   -3195.7661    -2764.532    377.82284    11920.928 
   23350    298.87005    196.13193   -3204.3975    -2759.851    169.97155    11920.074 
   23400    292.18409    195.91079   -3197.0263   -2762.4246    385.88544    11919.048 
   23450    295.34753    196.11019   -3203.6731    -2764.366    283.90292    11917.915 
   23500    306.37406    196.40134   -3213.3781   -2757.6699   -7.7700269    11916.625 
   23550    291.98238    196.06935   -3202.3115   -2768.0099    335.98486    11915.078 
   23600     302.5713     196.3871   -3212.9033   -2762.8514    148.67524    11913.381 
   23650    298.63541    196.28918   -3209.6394   -2765.4419    255.19906    11911.498 
   23700    290.43241    196.14538   -3204.8461   -2772.8499    433.84497    11909.459 
   23750    301.52793    196.35889   -3211.9629    -2763.463    160.59533    11907.331 
   23800    301.35863      196.343   -3211.4335   -2763.1854     149.3353    11905.024 
   23850     294.5788    196.17766    -3205.922   -2767.7584    407.59359    11902.517 
   23900    311.36897    196.66934   -3222.3114   -2759.1736    55.744985    11899.902 
   23950     310.5725    196.68547   -3222.8491   -2760.8961     108.1128    11897.043 
   24000    289.82776    196.13066   -3204.3552   -2773.2584    607.20946     11893.98 
   24050    299.98984     196.5333   -3217.7766   -2771.5644    365.17711    11890.911 
   24100     289.5334    196.23472   -3207.8238   -2777.1649    668.81763    11887.797 
   24150    302.03358    196.58218   -3219.4059   -2770.1539    356.28853    11884.723 
   24200    299.20568    196.52642   -3217.5473   -2772.5015    414.35427    11881.577 
   24250    297.49354    196.53878   -3217.9592   -2775.4601    384.24354    11878.357 
   24300    294.92683    196.49461   -3216.4872   -2777.8058     406.7063    11875.064 
   24350    286.38363    196.21996   -3207.3319    -2781.358    708.26149    11871.715 
   24400    305.52084    196.78481   -3226.1604   -2771.7213    236.48118    11868.419 
   24450    308.06206     196.8433   -3228.1101   -2769.8911    128.85529    11864.997 
   24500    299.33354    196.64425   -3221.4751   -2776.2391    399.75771    11861.367 
   24550    298.39501    196.74776   -3224.9255   -2781.0855    458.41836     11857.66 
   24600    286.64489    196.33776   -3211.2586   -2784.8961    886.89747     11853.95 
   24650    301.24638    196.67686   -3222.5619   -2774.4807    645.46087    11850.382 
   24700    298.42021    196.68095   -3222.6984    -2778.821    701.29134    11846.905 
   24750    298.49217    196.60065   -3220.0215    -2776.037    737.84042    11843.509 
   24800    302.45827    196.80044   -3226.6814   -2776.7976    609.06412    11840.203 
   24850    300.28972    196.76252   -3225.4174   -2778.7592    695.99577    11836.949 
   24900    304.63079    196.94013   -3231.3375   -2778.2223    552.37391     11833.75 
   24950    286.04064    196.40374   -3213.4581   -2787.9943    1018.2305    11830.591 
   25000    285.78033    196.35375   -3211.7917   -2786.7152    1082.4934    11827.667 
   25050    284.20165     201.4171   -3213.9032   -2791.1748    1032.1225    11825.042 
   25100    298.83629    201.79629   -3226.5431   -2782.0467    719.91084    11822.673 
   25150    297.47478    201.74405   -3224.8016   -2782.3304    877.77597    11820.431 
   25200    291.44572    201.61872   -3220.6239   -2787.1205    1040.8758     11818.36 
   25250     288.6467     201.5144   -3217.1466   -2787.8065    1077.2429     11816.56 
   25300    295.55816    201.70099   -3223.3663   -2783.7459    893.21602    11815.021 
   25350    286.82496    201.61158    -3220.386   -2793.7556    1165.1063    11813.685 
   25400    290.97881    201.68646   -3222.8819    -2790.073    1121.3036    11812.656 
   25450    298.41548    201.96246   -3232.0822   -2788.2117    897.82921    11811.916 
   25500    283.99023    201.49527   -3216.5091   -2794.0952    1246.2942    11811.402 
   25550    293.08265    201.71694   -3223.8982   -2787.9599    1075.9047    11811.209 
   25600     282.3028    201.38885   -3212.9616   -2793.0576    1289.3098    11811.337 
   25650    306.45878    202.17913   -3239.3044   -2783.4702    477.32205    11811.779 
   25700    287.09212    201.60458   -3220.1525   -2793.1248     1018.711    11812.246 
   25750     295.3527    201.88616   -3229.5386   -2790.2238    849.17396    11812.905 
   25800    292.42657    201.82785   -3227.5949   -2792.6325    869.32408    11813.736 
   25850     292.2228     201.8705   -3229.0166   -2794.3573    801.25688    11814.709 
   25900     286.5717    201.64261   -3221.4204   -2795.1667    970.84535    11815.813 
   25950    281.66803     201.5423   -3218.0765   -2799.1167    1038.1923    11817.122 
   26000     300.9968    202.17952   -3239.3174   -2791.6075    462.87119    11818.643 
   26050    282.65231    196.65109   -3221.7031   -2801.2792    933.65397    11820.174 
   26100    285.01625    196.67651   -3222.5504   -2798.6103    875.78953    11821.839 
   26150    292.92884    196.81107   -3227.0355   -2791.3261    665.37935    11823.652 
   26200    304.12898     197.1872   -3239.5734   -2787.2046    327.04014    11825.484 
   26250    291.69862    196.84321   -3228.1069   -2794.2273    596.86291    11827.204 
   26300    286.62339    196.74972   -3224.9906     -2798.66    705.65998    11828.918 
   26350    300.19752    197.19665   -3239.8884   -2793.3673    256.99841    11830.669 
   26400    305.72319    197.35228   -3245.0759   -2790.3358    178.02499    11832.244 
   26450    287.62057    196.77254   -3225.7513   -2797.9375    706.63261    11833.632 
   26500    300.78852    197.21819   -3240.6063   -2793.2062    273.68147    11835.034 
   26550    281.72689    196.64771   -3221.5903   -2802.5429    646.77458    11836.329 
   26600    303.67442    197.21734   -3240.5779   -2788.8852     145.3096    11837.592 
   26650    293.20592    196.90734   -3230.2446    -2794.123    551.09484     11838.68 
   26700    281.95995    196.57836   -3219.2787   -2799.8847    819.98192    11839.746 
   26750    284.68069    196.64284   -3221.4279   -2797.9869    696.27417     11840.92 
   26800    276.38655    196.32772    -3210.924     -2799.82    897.48894    11842.171 
   26850    292.76692    196.76521    -3225.507   -2790.0384    397.50974    11843.557 
   26900    295.45351     196.8225   -3227.4166   -2787.9519    331.73368    11844.888 
   26950    297.85299    196.76282   -3225.4273   -2782.3935    465.70202     11846.09 
   27000    299.81419    196.90959   -3230.3198   -2784.3689    371.57737    11847.207 
   27050    300.97591    196.95622   -3231.8741   -2784.1953      400.545    11848.212 
   27100    286.45041    196.50417   -3216.8055   -2790.7323    845.66984    11849.151 
   27150     295.8369    196.69766   -3223.2555   -2783.2205    591.49518    11850.202 
   27200    300.26584      196.881   -3229.3665   -2782.7438    429.66162    11851.253 
   27250    292.25008    196.66031   -3222.0103   -2787.3105       615.24    11852.235 
   27300    302.66877    196.89833   -3229.9442   -2779.7474    397.63512    11853.217 
   27350    313.24143    197.09173    -3236.391   -2770.4681     194.7569    11854.092 
   27400    308.70807      196.954   -3231.8001   -2772.6202    305.02812    11854.773 
   27450    293.58702    196.43729   -3214.5763   -2777.8879    735.92447    11855.329 
   27500    290.69464    196.26704   -3208.9013   -2776.5151    889.12263     11855.94 
   27550     306.1328    196.83555   -3227.8516   -2772.5023    492.32318    11856.674 
   27600    295.35412    196.40836   -3213.6119    -2774.295    834.18036    11857.406 
   27650    303.90821    196.54712   -3218.2375   -2766.1971    695.11326    11858.224 
   27700    300.14521    196.42408    -3214.136   -2767.6928    811.66703    11859.108 
   27750    297.48135    196.30711   -3210.2371   -2767.7562    867.88129      11860.1 
   27800    308.64049    196.63677   -3221.2257   -2762.1464    595.63946    11861.225 
   27850    316.39553    196.79262   -3226.4208   -2755.8064    389.65919    11862.327 
   27900      302.875    196.45197   -3215.0656    -2764.562    735.16301    11863.322 
   27950    296.52234    196.26059   -3208.6865    -2767.632    945.39516    11864.385 
   28000    309.65955    196.61467   -3220.4891    -2759.894    590.22002    11865.597 
   28050    311.47332    196.65484    -3221.828   -2758.5351    480.71224    11866.811 
   28100    296.94728    196.19272   -3206.4241   -2764.7375    891.91488    11867.994 
   28150    300.15875    196.26575   -3208.8582   -2762.3948    804.18948    11869.299 
   28200    307.82433    196.43744   -3214.5814    -2756.716    611.26664    11870.718 
   28250    309.55895    196.39299   -3213.0997   -2752.6542    657.52541    11872.146 
   28300    316.11846    196.52754   -3217.5847   -2747.3825    505.34645    11873.575 
   28350    313.95663    196.38167   -3212.7222   -2745.7355    609.10151    11874.963 
   28400    300.91275    196.08731   -3202.9103   -2755.3254    965.04919    11876.349 
   28450    292.67084    195.87567   -3195.8556   -2760.5299    1187.6948    11877.911 
   28500    310.03542    196.33161   -3211.0538   -2749.8996    845.53207    11879.743 
   28550    302.47083    196.10396   -3203.4652   -2753.5628    1027.4717    11881.731 
   28600    310.84968    196.31546   -3210.5152   -2748.1499    733.05277    11883.899 
   28650    313.51161    196.38075   -3212.6916   -2746.3668    557.16279    11886.138 
   28700    318.37673    196.52035   -3217.3451   -2743.7839    474.38579    11888.334 
   28750    315.94199    196.46145   -3215.3818    -2745.442    549.38758    11890.455 
   28800    323.41659    196.63959   -3221.3198   -2740.2621    310.94872    11892.513 
   28850    314.76087    196.37746    -3212.582   -2744.3991    469.65867    11894.405 
   28900    291.40214     195.7289   -3190.9632   -2757.5246    1039.3509    11896.247 
   28950     306.7852    196.11445   -3203.8149   -2747.4952    699.94871     11898.28 
   29000    308.12323    196.18986   -3206.3286   -2748.0186    641.01114     11900.37 
   29050    305.78241    196.18668   -3206.2227   -2751.3945    609.49405    11902.482 
   29100    309.25745    196.28712   -3209.5706   -2749.5736    453.20667    11904.574 
   29150    282.22787    195.60991   -3186.9969   -2767.2043    1112.1924    11906.637 
   29200    309.45962    196.32723   -3210.9075   -2750.6098    465.52147    11908.909 
   29250    315.54457    196.48431   -3216.1437   -2746.7951    257.03431    11911.129 
   29300    291.84661    195.75085   -3191.6951   -2757.5954    822.56127    11913.205 
   29350    299.76962    195.92728    -3197.576   -2751.6914    671.36031    11915.354 
   29400    304.70496    196.02835    -3200.945   -2747.7194    452.09933     11917.54 
   29450    308.55325    196.21301   -3207.1004   -2748.1508    198.22706     11919.63 
   29500    304.66193    196.19653   -3206.5509   -2753.3894    208.95002    11921.525 
   29550    300.73175    196.04953   -3201.6509   -2754.3352    333.16768    11923.231 
   29600    315.96245    196.44714   -3214.9046   -2744.9344    76.612066    11924.762 
   29650    311.83879    196.33355   -3211.1184   -2747.2818    131.83089    11926.026 
   29700    303.05134    196.18503   -3206.1675   -2755.4016    214.04036    11927.018 
   29750    300.88159    196.09256   -3203.0854   -2755.5469    220.00395    11927.805 
   29800    295.91216     195.9151     -3197.17   -2757.0231    325.81428    11928.422 
   29850    299.71587    196.00171   -3200.0571   -2754.2525    207.83967    11928.893 
   29900    308.64492    196.30693   -3210.2309    -2751.145   -80.684777    11929.142 
   29950    298.63054    195.96277   -3198.7589   -2754.5686    171.43616    11929.065 
   30000    285.04104    195.61369    -3187.123    -2763.146    451.11358    11928.778 
   30050    292.95604    200.97572   -3199.1907   -2763.4407    244.37374    11928.397 
   30100    281.07978    200.56102   -3185.3674   -2767.2825    696.71094    11927.903 
   30150    291.96315    200.90382   -3196.7941    -2762.521    466.00442    11927.456 
   30200    296.91597    201.08653   -3202.8844   -2761.2444    285.55376    11926.977 
   30250    295.76949    201.13902   -3204.6341   -2764.6994    204.09282    11926.365 
   30300    298.49101    201.19067   -3206.3558   -2762.3731    114.86763    11925.567 
   30350    293.79976    201.02966   -3200.9888   -2763.9839    275.11604    11924.549 
   30400    282.07951    200.74231   -3191.4104   -2771.8385    616.00439    11923.395 
   30450    282.93655    200.78992   -3192.9973   -2772.1506    566.36687    11922.266 
   30500    285.70124    200.83178   -3194.3926   -2769.4337    532.27339    11921.163 
   30550    284.71096    200.82452   -3194.1508   -2770.6648    617.98513     11920.05 
   30600     286.2267    200.82858   -3194.2861   -2768.5456    554.68039    11918.986 
   30650    307.35739    201.48028   -3216.0095   -2758.8386   -32.245886    11917.906 
   30700    303.08659    201.43825   -3214.6082   -2763.7899    71.242427    11916.567 
   30750    297.95069    201.38119   -3212.7064   -2769.5274    195.72812    11914.962 
   30800    282.40602    200.94126   -3198.0422   -2777.9846    577.85422    11913.204 
   30850    299.94276    201.48046   -3216.0155   -2769.8733    138.40671    11911.427 
   30900    293.98385    201.27538   -3209.1795   -2771.9008    276.38959    11909.471 
   30950    295.73192    201.40438   -3213.4792   -2773.6004    151.20441    11907.361 
   31000      297.092     201.5122   -3217.0735   -2775.1716    20.125878    11905.043 
   31050    290.09231    201.32674   -3210.8912   -2779.4009    142.20495    11902.464 
   31100    292.53052    201.49138   -3216.3794   -2781.2625    54.380834    11899.673 
   31150    275.10535    201.06829   -3202.2765   -2793.0781    448.99189    11896.669 
   31200    288.23509    201.49847   -3216.6157   -2787.8878    105.28961    11893.575 
   31250     293.7325    201.68933   -3222.9777   -2786.0729    2.1655312    11890.286 
   31300    284.26303    201.50572   -3216.8574   -2794.0376    258.59795     11886.75 
   31350    286.62428    201.61996   -3220.6653   -2794.3334    217.97892    11883.059 
   31400      281.717    201.48262   -3216.0873   -2797.0546    449.25731    11879.238 
   31450    282.18622    201.44129   -3214.7098   -2794.9791       548.85    11875.374 
   31500    286.43366    201.58983   -3219.6611   -2793.6127    449.96924    11871.516 
   31550    286.37427    201.54534   -3218.1781   -2792.2181    475.63977    11867.624 
   31600    283.40219    201.49429   -3216.4762   -2794.9369    577.11704    11863.708 
   31650    286.90748    201.61615   -3220.5383   -2793.7852    511.36755    11859.804 
   31700    291.95539    201.85419    -3228.473   -2794.2115    392.63952     11855.88 
   31750    285.59732    201.64995   -3221.6651   -2796.8607     566.9161    11851.913 
   31800    290.55856    201.74042   -3224.6808   -2792.4969    498.28357    11847.954 
   31850    285.48432    201.61112   -3220.3706   -2795.7343    631.02622        11844 
   31900    293.15502    201.82347    -3227.449   -2791.4031    469.89016    11840.074 
   31950    292.58582    201.85099   -3228.3663   -2793.1671    538.54949    11836.127 
   32000    288.89728    201.81091   -3227.0303   -2797.3175     594.4804    11832.193 
   32050    295.70763     197.0606   -3235.3534   -2795.5107    458.24773    11828.272 
   32100    286.37155    196.69806   -3223.2686   -2797.3126     792.0831     11824.33 
   32150    279.16852    196.52229   -3217.4096   -2802.1676     1033.354    11820.504 
   32200    295.98857    196.98426   -3232.8086   -2792.5481     644.7907    11816.887 
   32250    285.34301    196.74821   -3224.9403   -2800.5142    880.92809    11813.354 
   32300    286.19518    196.84651   -3228.2171   -2802.5234    888.53326    11809.978 
   32350    292.96705    196.99408   -3233.1359   -2797.3696    752.34252    11806.788 
   32400    299.11125    197.19795   -3239.9315   -2795.0262    584.75464    11803.684 
   32450    290.89049    197.07106   -3235.7019   -2803.0243    850.61554    11800.604 
   32500    282.40513    196.84415   -3228.1383    -2808.082    1119.5032    11797.676 
   32550    295.34778    197.12877   -3237.6258   -2798.3183    833.51012    11795.001 
   32600    289.97418    196.94621   -3231.5403   -2800.2257    986.06703    11792.498 
   32650    302.09324    197.30681   -3243.5604   -2794.2196    708.11725    11790.168 
   32700    291.45025    197.00733   -3233.5778   -2800.0677    1002.3854    11787.944 
   32750    296.20867    197.12269    -3237.423    -2796.835    895.92768    11785.924 
   32800    299.40386    197.16735   -3238.9117   -2793.5711    897.67969    11784.066 
   32850    292.20033    196.94959   -3231.6529    -2797.027    1137.6164    11782.377 
   32900    294.72599    197.05488   -3235.1625   -2796.7799    1113.9592    11780.963 
   32950    291.67166    196.92392   -3230.7972   -2796.9577    1260.1636    11779.834 
   33000    278.20174    196.50628   -3216.8762   -2803.0722    1662.9108    11779.081 
   33050     289.9175    196.77837   -3225.9457   -2794.7154    1389.5678    11778.864 
   33100    294.40606     196.9499   -3231.6633   -2793.7566    1275.6231    11779.061 
   33150    286.38606    196.72572   -3224.1906   -2798.2131     1468.143     11779.64 
   33200    304.13064    197.17274   -3239.0913     -2786.72    1065.7636    11780.649 
   33250    291.13476    196.79593   -3226.5312   -2793.4903    1443.0894    11781.954 
   33300    308.66133    197.30715   -3243.5716   -2784.4612    1029.6547    11783.639 
   33350    300.55845    196.98205   -3232.7351   -2785.6772    1287.2864    11785.589 
   33400    301.86373    196.99123    -3233.041   -2784.0415    1210.7595    11787.878 
   33450    303.76298     197.0152   -3233.8398   -2782.0154    1109.1128    11790.482 
   33500    303.94521    196.98411   -3232.8036   -2780.7081     1034.886    11793.348 
   33550    301.05058    196.88534   -3229.5113   -2781.7214    1018.6058    11796.451 
   33600    310.19958     197.1654   -3238.8466   -2777.4483    794.26474    11799.746 
   33650    291.80876     196.5567   -3218.5568   -2784.5134    1266.6278    11803.183 
   33700    302.60861    196.85364   -3228.4547   -2778.3473      1025.85    11806.917 
   33750    303.90237    196.72107   -3224.0355   -2772.0038    1087.1031    11810.902 
   33800    301.55624    196.56115   -3218.7051    -2770.163    1093.3416    11815.126 
   33850    300.38288    196.51551   -3217.1836   -2770.3868    1086.5288    11819.581 
   33900    309.58729    196.73904   -3224.6347   -2764.1471     821.5135    11824.286 
   33950    307.36727     196.7338     -3224.46   -2767.2745    762.58102    11829.121 
   34000     304.4692    196.50394   -3216.7981   -2763.9232    934.67538    11834.046 
   34050    304.25718    196.42454   -3214.1513   -2761.5918    1025.7612    11839.129 
   34100    292.50046    196.09155   -3203.0516   -2767.9793    1244.9108    11844.442 
   34150    311.50671    196.58085   -3219.3616   -2756.0189    698.72662     11850.06 
   34200    308.11369    196.51106   -3217.0352   -2758.7394      805.413    11855.754 
   34250    310.02834     196.5333   -3217.7767   -2756.6331     804.3125    11861.532 
   34300     298.9914    196.18008   -3206.0026   -2761.2756    991.65834    11867.434 
   34350    308.57805    196.45053   -3215.0177   -2756.0312     679.8714    11873.506 
   34400    307.60709    196.39819   -3213.2731   -2755.7309     634.0733     11879.64 
   34450    298.33932    196.05868   -3201.9561    -2758.199    809.99731    11885.792 
   34500    301.14872       196.09        -3203   -2755.0641    735.75045     11892.04 
   34550    306.69763    196.11372   -3203.7908   -2747.6013    640.37376    11898.365 
   34600    316.49051    196.44485   -3214.8282   -2744.0726    407.10427    11904.693 
   34650    310.21007    196.34397   -3211.4657   -2750.0517     517.8858    11910.926 
   34700     294.1787    195.75402   -3191.8008   -2754.2323    849.86181    11917.117 
   34750    303.01844    195.99576   -3199.8587   -2749.1417    387.44915    11923.408 
   34800    313.50805    196.30847   -3210.2822   -2743.9627   -60.444986     11929.59 
   34850    310.53855     196.2344   -3207.8134   -2745.9108   -34.497657    11935.439 
   34900    302.09139    195.92409   -3197.4697   -2748.1316    158.43952    11940.963 
   34950      312.626    196.23929   -3207.9764   -2742.9689   -171.55593    11946.216 
   35000    304.18066    195.99463    -3199.821   -2747.3753     77.09685    11951.087 
   35050    281.73646    200.26528   -3175.5094   -2756.4477    681.47477     11955.73 
   35100    314.29524    201.23929   -3207.9764    -2740.486   -145.32082    11960.335 
   35150    287.11482    200.36318   -3178.7726    -2751.711    475.91242     11964.65 
   35200    303.77514    200.87061   -3195.6871   -2743.8446   -125.51825    11968.858 
   35250    310.16178    201.11788   -3203.9293   -2742.5871   -430.13283    11972.734 
   35300    308.60841    200.99572   -3199.8574   -2740.8257    -338.7845    11976.085 
   35350    301.35799    200.79175   -3193.0583   -2744.8111    -79.83572    11978.971 
   35400    298.03408    200.75714   -3191.9048   -2748.6017     8.332127     11981.52 
   35450    301.43114    200.85612   -3195.2039   -2746.8479   -130.12225    11983.761 
   35500    289.27216    200.45516   -3181.8388   -2751.5684    167.69213     11985.67 
   35550    285.49792    200.35859   -3178.6196   -2753.9631    294.57033    11987.372 
   35600    305.59246     201.0243     -3200.81   -2746.2644   -220.43573    11988.902 
   35650    306.29081    201.03607   -3201.2022   -2745.6178   -322.08295     11990.05 
   35700    292.71742    200.61486    -3187.162    -2751.767   -65.076992    11990.748 
   35750    304.54751    200.88863   -3196.2876   -2743.2962   -371.89293    11991.097 
   35800    304.44306    200.93272   -3197.7572   -2744.9212   -401.94717    11990.975 
   35850    288.81817    200.47482    -3182.494   -2752.8988   -25.774072    11990.365 
   35900    293.23072    200.60614   -3186.8712   -2750.7127   -60.582281    11989.421 
   35950    289.34362    200.39795   -3179.9316   -2749.5549    189.81232    11988.178 
   36000    299.48428    200.59506   -3186.5021    -2741.042   -30.397365    11986.712 
   36050    309.56502    205.95989    -3198.663   -2738.2085   -293.87708    11984.939 
   36100    291.42175    205.37523   -3179.1744   -2745.7066    278.69403    11982.779 
   36150    297.54752    205.59539   -3186.5132   -2743.9338    125.14804    11980.444 
   36200    304.15914       205.83   -3194.3333   -2741.9197     43.74641    11977.903 
   36250    293.65067    205.50137   -3183.3791    -2746.596    423.32056    11975.142 
   36300    305.92368    205.82965   -3194.3217   -2739.2834    133.26418    11972.289 
   36350    293.07489    205.50796   -3183.5987    -2747.672    452.32911     11969.26 
   36400    302.33781    205.81089   -3193.6963   -2743.9918    159.14594    11966.161 
   36450    300.38189    205.71909   -3190.6363    -2743.841    144.86968      11962.9 
   36500    306.41098    205.83243   -3194.4144   -2738.6513     98.42922    11959.423 
   36550    306.07626    205.73957    -3191.319   -2736.0538    286.25571     11955.74 
   36600    294.88647    205.41352   -3180.4508   -2741.8295    591.65648    11951.945 
   36650    306.40879    205.82905   -3194.3015   -2738.5417    195.96876     11948.13 
   36700    298.22894    205.58684    -3186.228   -2742.6351    434.17093    11944.178 
   36750    297.83351    205.55854   -3185.2846   -2742.2798     649.9046    11940.176 
   36800    311.03069    206.03625   -3201.2085   -2738.5739    408.02023    11936.209 
   36850     306.4294    205.83577   -3194.5257   -2738.7352    506.20473    11932.199 
   36900    302.08668    205.74254   -3191.4179   -2742.0869    552.00272    11928.159 
   36950    298.47775    205.61238   -3187.0794   -2743.1164    735.51303    11924.123 
   37000    316.23692     206.1236   -3204.1199   -2733.7415    376.60033    11920.175 
   37050    313.29574    205.99887   -3199.9625   -2733.9588    538.70023    11916.168 
   37100    297.73269    205.56725   -3185.5749   -2742.7201    1020.1814    11912.175 
   37150    306.16226    205.80214   -3193.4048   -2738.0116    863.40848    11908.405 
   37200    296.37962    205.57011   -3185.6702    -2744.828    1154.3675    11904.829 
   37250    318.64447      206.248   -3208.2667   -2734.3072    572.91845    11901.511 
   37300    311.71774    205.96995   -3198.9984   -2735.3419    807.68795    11898.258 
   37350    297.53294     205.4906   -3183.0199   -2740.4622    1273.3458    11895.148 
   37400    300.93395    205.57169   -3185.7229   -2738.1065    1265.3061      11892.4 
   37450     285.6331     205.1239   -3170.7967   -2745.9392    1761.8304    11890.062 
   37500    302.10444    205.61302   -3187.1006   -2737.7432    1372.1728     11888.31 
   37550    321.47593    206.24221   -3208.0736   -2729.9025    773.95035    11886.991 
   37600    314.92823    206.01182   -3200.3942   -2731.9623    1010.9985    11885.823 
   37650    305.09428    205.70247   -3190.0822   -2736.2776    1331.8619    11884.878 
   37700    311.73747    205.96129   -3198.7097   -2735.0239    1023.6748    11884.301 
   37750    307.03881    205.86985   -3195.6618   -2738.9648    1060.4573    11883.989 
   37800    307.61946    205.81485   -3193.8282   -2736.2676     1141.428    11883.937 
   37850    313.10255    205.95413   -3198.4711   -2732.7548    1020.2413     11884.19 
   37900    303.22372    205.67213   -3189.0708   -2738.0485    1322.6868    11884.705 
   37950    297.24225    205.50629   -3183.5431   -2741.4178    1478.3621    11885.629 
   38000    311.53006    205.88915   -3196.3049   -2732.9275    1081.9952    11887.004 
   38050     311.6005    205.95681   -3198.5603   -2735.0782    995.39937    11888.677 
   38100    314.09478    206.05671   -3201.8903   -2734.6981    937.98967    11890.586 
   38150    306.75524    205.81828   -3193.9427   -2737.6676    1178.5626    11892.703 
   38200     319.7344    206.25136   -3208.3785   -2732.7978    735.01825    11895.108 
   38250    312.16014    205.99795   -3199.9316   -2735.6171    830.65917    11897.643 
   38300    318.98423    206.14913   -3204.9711   -2730.5062    676.30447    11900.292 
   38350    313.73882    206.03219    -3201.073   -2734.4103    814.47097    11903.031 
   38400    295.75159    205.56345   -3185.4483   -2745.5403    1285.3915    11905.921 
   38450    293.47432    205.48045   -3182.6818    -2746.161    1253.8015    11909.203 
   38500    314.79419    206.04473   -3201.4911   -2733.2586    566.04567    11912.826 
   38550    318.90869    206.21528   -3207.1759   -2732.8234    353.90978    11916.465 
   38600    326.25423    206.35059   -3211.6864    -2726.408    122.12878    11919.996 
   38650    310.75067    205.90374   -3196.7912   -2734.5731    505.24383    11923.333 
   38700    298.92754    205.60804   -3186.9347   -2742.3027    831.33523    11926.628 
   38750    277.52373    204.96066   -3165.3553   -2752.5598    1399.2204    11930.106 
   38800    301.67971    205.80934   -3193.6446   -2744.9189    573.93367    11933.969 
   38850    297.97198    205.60946   -3186.9819   -2743.7712    574.84445    11937.912 
   38900    305.63258    205.78965   -3192.9882   -2738.3829    377.68577    11941.845 
   38950    297.94142    205.64274   -3188.0914   -2744.9262    523.62078    11945.722 
   39000    294.33625    205.47467    -3182.489   -2744.6862    598.79265    11949.602 
   39050    310.69987    201.04318   -3201.4392   -2739.2967    8.8014571    11953.468 
   39100    300.42288     200.8916   -3196.3865   -2749.5303    74.512336    11957.085 
   39150    292.51754     200.5507   -3185.0235   -2749.9258    297.07037     11960.46 
   39200    294.25761      200.702   -3190.0666   -2752.3807    236.47139    11963.682 
   39250     297.0541    200.79763   -3193.2545    -2751.409    157.30616    11966.733 
   39300    298.40308    200.84572   -3194.8572   -2751.0052    57.382149    11969.576 
   39350    302.96532    201.01746   -3200.5821   -2749.9441   -261.34781    11972.146 
   39400    293.46663    200.76906   -3192.3019   -2755.7925   -161.66429    11974.306 
   39450    298.13032    200.93938   -3197.9795   -2754.5332   -316.38281    11976.062 
   39500    300.47963    201.03266   -3201.0887    -2754.148   -405.88776    11977.361 
   39550     289.6001    200.82526   -3194.1753   -2763.4171   -162.88177    11978.168 
   39600    295.86558    201.08135   -3202.7117   -2762.6341   -370.24041    11978.577 
   39650      299.474     201.0928   -3203.0934   -2757.6485   -400.64159    11978.513 
   39700    291.12036    200.93902   -3197.9675    -2764.948   -146.55036    11977.962 
   39750     299.9039    201.21846   -3207.2821   -2761.1978   -394.50093     11977.02 
   39800    300.24275    201.23026   -3207.6754    -2761.087   -407.18793    11975.584 
   39850    291.69493    200.89654   -3196.5513   -2762.6772   -137.81857    11973.667 
   39900    287.98907    200.73005   -3191.0016   -2762.6397   -40.825117    11971.384 
   39950    296.73134    201.10403   -3203.4677   -2762.1023    -357.3667    11968.771 
   40000    300.63828    201.18058   -3206.0194   -2758.8427   -402.90811    11965.695 
   40050    300.47321    201.21796   -3207.2653   -2760.3342   -376.29257    11962.117 
   40100     295.2948    201.15673   -3205.2242   -2765.9956   -261.02924    11958.063 
   40150    292.98011    201.11758   -3203.9193   -2768.1336   -126.27928    11953.564 
   40200    277.21217    200.66591   -3188.8636   -2776.5315    327.61533    11948.741 
   40250    287.47825    200.97745   -3199.2483   -2771.6462    94.484559    11943.775 
   40300    301.32135    201.40792   -3213.5974   -2765.4047   -220.65097    11938.575 
   40350    301.63821     201.3797   -3212.6566   -2763.9926   -68.737322    11932.986 
   40400    287.78583    201.05602   -3201.8673   -2773.8076    402.02843    11927.094 
   40450     290.4974    201.13123   -3204.3743   -2772.2815    306.24013    11921.112 
   40500    299.65547    201.41958   -3213.9861   -2768.2713    92.641969    11914.988 
   40550    291.96608    201.21421   -3207.1404    -2772.863    332.37075    11908.665 
   40600    300.29857    201.50868   -3216.9559   -2770.2845     211.4176    11902.198 
   40650    286.36096    201.08285   -3202.7615   -2776.8213    651.23235    11895.604 
   40700      308.233    201.74127    -3224.709   -2766.2358    99.754143    11889.013 
   40750     293.4198    201.28574   -3209.5248   -2773.0851    550.31764    11882.237 
   40800     285.9894     201.1243   -3204.1432   -2778.7557    715.42759    11875.446 
   40850    291.17228    201.29525   -3209.8417    -2776.745    586.05337    11868.744 
   40900    302.27736    201.60078    -3220.026   -2770.4114    482.48366    11862.052 
   40950    298.95508    201.52061   -3217.3536   -2772.6806     654.9213    11855.345 
   41000    300.24016    201.55547   -3218.5157   -2771.9312    631.79057    11848.677 
   41050    305.26677    201.67886   -3222.6287   -2768.5675    603.96764    11842.036 
   41100    306.65048     201.7774   -3225.9134    -2769.794    738.86325    11835.415 
   41150    293.49299     201.3797   -3212.6568   -2776.1082    1187.7671    11828.914 
   41200    302.72179    201.60966    -3220.322   -2770.0463    961.15746    11822.712 
   41250    298.61998    201.59827   -3219.9423   -2775.7678    1070.3931    11816.735 
   41300    300.51272    201.61268   -3220.4227   -2773.4328    1096.4631    11811.024 
   41350    308.79109    201.89102   -3229.7007   -2770.3973    993.55672     11805.57 
   41400     282.6949    201.04811   -3201.6036   -2781.1164    1828.4729    11800.389 
   41450    292.38223    201.30624   -3210.2081   -2775.3117    1578.7948    11795.807 
   41500    299.18972    201.61309   -3220.4362   -2775.4142     1355.121    11791.757 
   41550    286.58742    201.23561   -3207.8537   -2781.5766    1704.8324    11788.148 
   41600     302.9694    201.73366   -3224.4554   -2773.8113    1291.8578    11785.086 
   41650    317.12273    202.13634   -3237.8779   -2766.1819    991.86993    11782.385 
   41700    298.53695    201.58184   -3219.3947   -2775.3436    1582.7949    11779.934 
   41750    299.23849    201.63828    -3221.276   -2776.1815     1614.539    11777.964 
   41800    301.16274    201.79961   -3226.6537   -2778.6969    1580.0345    11776.519 
   41850    283.36416    201.31448   -3210.4826   -2788.9999    1986.6319    11775.632 
   41900    298.24456    201.67393   -3222.4644   -2778.8482    1517.6081    11775.427 
   41950     303.8179    201.85012   -3228.3372   -2776.4311    1331.8301    11775.725 
   42000    317.86055    202.21961   -3240.6536   -2767.8601    949.40082    11776.401 
   42050     306.6949    196.93725   -3231.2417   -2775.0563    1199.4967    11777.302 
   42100    295.79639     196.6254   -3220.8465   -2780.8718    1491.7122    11778.511 
   42150    321.86267    197.40987   -3246.9957   -2768.2494    716.81152    11780.102 
   42200    304.62966    196.98459   -3232.8195    -2779.706    1172.9257    11781.804 
   42250    289.89899    196.53624   -3217.8748    -2786.672    1603.2154    11783.798 
   42300    301.88806    196.91369   -3230.4562   -2781.4206    1159.2198    11786.283 
   42350    300.86809     196.8967     -3229.89   -2782.3715    1104.7949    11789.073 
   42400    298.94076    196.84676   -3228.2252   -2783.5735    1088.7996    11792.116 
   42450    296.31361    196.79308    -3226.436    -2785.692    1077.1293    11795.429 
   42500     300.4489    196.96232   -3232.0773   -2785.1823    946.08457    11798.981 
   42550    301.82715    196.98958   -3232.9859   -2784.0409    886.63261    11802.715 
   42600    292.33888    196.75103   -3225.0345   -2790.2026    1041.8791    11806.613 
   42650     286.3375    196.61802   -3220.6007   -2794.6954    1134.6224    11810.752 
   42700    284.89111    196.55435   -3218.4784   -2794.7244    1108.1513    11815.191 
   42750    307.05366    197.16633   -3238.8777   -2782.1587    457.68975    11819.849 
   42800    295.32723    196.89735   -3229.9117   -2790.6348    605.10938    11824.491 
   42850    291.64599    196.85584    -3228.528   -2794.7267    543.28548    11829.136 
   42900    291.50658    196.89015   -3229.6716   -2796.0777    556.12322    11833.773 
   42950    285.40175     196.7883   -3226.2767   -2801.7632     684.6661    11838.413 
   43000    280.01496    196.63459   -3221.1532   -2804.6521    705.50003    11843.125 
   43050     294.1383    197.07758   -3235.9194    -2798.411    104.10808     11847.88 
   43100     280.9351     196.6874   -3222.9133   -2805.0436     308.9919    11852.452 
   43150    283.82203    196.82917    -3227.639   -2805.4752    199.02499    11856.874 
   43200    295.37331    197.19601   -3239.8669   -2800.5215   -98.859094    11861.098 
   43250      291.931    197.09533   -3236.5109   -2802.2857    3.7316736        11865 
   43300    282.90153      196.834   -3227.7999   -2807.0053    97.966238    11868.613 
   43350    286.80793     197.0243   -3234.1435   -2807.5384   -128.74556    11871.972 
   43400     281.7152    196.87015    -3229.005    -2809.975    -15.32687    11875.008 
   43450    296.87166    197.25647   -3241.8823   -2800.3083   -355.27572    11877.719 
   43500    272.38446    196.54345    -3218.115   -2812.9638    200.04551    11880.013 
   43550    289.25071    196.96344   -3232.1147   -2801.8762   -248.01725    11882.052 
   43600    279.10315    196.78038   -3226.0127   -2810.8679   -67.325635     11883.72 
   43650    282.45059    196.79695    -3226.565   -2806.4411   -225.23176    11885.034 
   43700    280.28757    196.64583   -3221.5277   -2804.6212   -185.46073    11885.965 
   43750     278.8272    196.58761   -3219.5869   -2804.8525   -79.186418    11886.518 
   43800    295.79628    197.25246   -3241.7486   -2801.7741   -478.93847    11886.693 
   43850    277.70712    196.77442   -3225.8141   -2812.7458   -59.425325    11886.395 
   43900    282.34778    196.92424   -3230.8079   -2810.8369   -244.43541    11885.733 
   43950    273.14442    196.64236    -3221.412   -2815.1304    60.864244     11884.69 
   44000    282.22931    196.85259   -3228.4196   -2808.6249   -112.89526    11883.376 
[...]
   89400    303.11559    206.24334   -3208.1113   -2757.2499   -39.636124    11943.221 
   89450    296.84064    205.99522   -3199.8407   -2758.3128     73.38232    11947.902 
   89500    298.16481    206.07951   -3202.6504   -2759.1529    35.748701    11952.371 
   89550    288.47067    205.73876   -3191.2921   -2762.2138    235.04473    11956.655 
   89600    292.82515    205.80365    -3193.455   -2757.8998    57.562857    11960.816 
   89650    306.72263    206.15417   -3205.1392   -2748.9125   -294.35681    11964.775 
   89700     293.4062    205.73042   -3191.0139   -2754.5944    96.432323    11968.377 
   89750    287.23743    205.48415   -3182.8049    -2755.561      277.107    11971.772 
   89800    283.41385     205.3202     -3177.34   -2755.7834     316.8739    11975.073 
   89850    291.78482    205.52686   -3184.2286   -2750.2208    140.50649    11978.291 
   89900    284.10524    205.21018   -3173.6728   -2751.0878    344.59514    11981.388 
   89950     298.5436    205.65417   -3188.4725   -2744.4115   -71.353315    11984.392 
   90000    305.92804    205.83008    -3194.336   -2739.2912   -226.22312    11987.131 
   90050    315.49985    201.13895   -3204.6316   -2735.3494   -437.56483    11989.485 
   90100    300.95434    200.61575   -3187.1916   -2739.5448   -7.5624032    11991.361 
   90150    293.36193    200.28921    -3176.307   -2739.9534    199.68065    11992.937 
   90200    305.29461    200.61938   -3187.3127   -2733.2101   -146.21868    11994.314 
   90250     301.6675    200.49079   -3183.0264   -2734.3189    -17.12295    11995.349 
   90300    300.27512     200.4747   -3182.4899   -2735.8534    17.804253    11996.078 
   90350    319.05324    200.95499   -3198.4998   -2723.9323   -431.91091    11996.505 
   90400    313.82234     200.8157   -3193.8567   -2727.0698   -308.45984    11996.435 
   90450    299.15943     200.2416     -3174.72    -2729.743    162.89658    11995.905 
   90500    309.16022     200.5666   -3185.5532   -2725.7008   -12.768133    11995.105 
   90550     300.0791    200.22578   -3174.1926   -2727.8477    392.56299     11994.02 
   90600    299.25414     200.2943   -3176.4767   -2731.3588    398.35613    11992.815 
   90650    317.03744    200.84721   -3194.9069   -2723.3377   -101.85848    11991.477 
   90700    299.60656    200.30492   -3176.8307   -2731.1887    421.32201     11989.81 
   90750    301.51535    200.39999   -3179.9997   -2731.5185    371.82965    11988.017 
   90800     314.8274    200.79674   -3193.2246   -2724.9427   -3.5517007    11986.078 
   90850    289.28115    200.04054   -3168.0178   -2737.7341    640.54211    11983.857 
   90900    314.14218      200.708   -3190.2668   -2723.0041    19.692625    11981.576 
   90950    315.24655     200.7758   -3192.5267   -2723.6213   -32.805006    11979.024 
   91000    314.91757    200.74068   -3191.3561     -2722.94    66.726864    11976.109 
   91050    298.78256    205.20436   -3173.4787   -2729.0623    528.48993    11972.918 
   91100    297.21816    205.18022   -3172.6741   -2730.5846    588.79683    11969.667 
   91150    311.50708    205.62499   -3187.4995   -2724.1563    247.61381    11966.379 
   91200    307.59433    205.45563   -3181.8544   -2724.3312    456.15359    11962.921 
   91250    305.66568    205.39933   -3179.9775    -2725.323    609.51906    11959.371 
   91300    315.61331    205.75046   -3191.6819    -2722.231    464.66693    11955.802 
   91350     308.1042    205.49486   -3183.1621   -2724.8805    739.15958    11952.182 
   91400     301.3335    205.28621   -3176.2071   -2727.9963     995.8274    11948.622 
   91450    302.30717    205.34581   -3178.1937   -2728.5347    1038.4838    11945.251 
   91500    316.12786    205.84666   -3194.8888   -2724.6726    619.16746    11942.065 
   91550      316.987    205.79603   -3193.2009   -2721.7068    556.68136    11938.913 
   91600    314.85873    205.73144    -3191.048   -2722.7195    670.72315    11935.735 
   91650    313.14672    205.66623   -3188.8743   -2723.0923    745.05673    11932.572 
   91700    307.21235    205.46571   -3182.1902   -2725.2351    913.29903    11929.465 
   91750      304.507    205.42755   -3180.9183   -2727.9872    993.94329    11926.503 
   91800    301.70435    205.35576   -3178.5254    -2729.763    1030.1696    11923.739 
   91850    307.11887    205.55141   -3185.0471   -2728.2311    870.77731    11921.176 
   91900    304.43037    205.50433   -3183.4777   -2730.6606     1052.367    11918.776 
   91950    308.51052    205.66517   -3188.8389   -2729.9529    1033.7805    11916.601 
   92000    305.66379      205.659   -3188.6334   -2733.9816      958.752    11914.654 
   92050    318.00976    211.08221   -3202.7404    -2729.725    561.22707    11912.872 
   92100    302.80407    210.64351   -3188.1172   -2737.7191    960.11794    11911.136 
   92150     305.3291    210.77712   -3192.5707   -2738.4168    970.08135    11909.574 
   92200    307.40789    210.72812   -3190.9372   -2733.6913    984.98345    11908.241 
   92250    312.20229    210.97183   -3199.0609   -2734.6837    705.90265    11907.108 
   92300     283.8336    210.03074   -3167.6914   -2745.5104    1512.7149    11906.134 
   92350    297.37904    210.48257   -3182.7522   -2740.4234    1197.9475    11905.601 
   92400     295.4149    210.42571   -3180.8569   -2741.4496    1228.0969    11905.459 
   92450    298.77378    210.54328   -3184.7762   -2740.3728    1170.4099    11905.683 
   92500    293.45316    210.39678   -3179.8927   -2743.4033    1336.5788     11906.28 
   92550    309.81443    210.94949   -3198.3162   -2737.4908    863.68662    11907.273 
   92600    303.48747    210.83999   -3194.6664   -2743.2517    972.99143    11908.505 
   92650    306.45513    210.99165   -3199.7216   -2743.8929    812.08833    11909.965 
   92700    304.92222    211.00737   -3200.2458   -2746.6971    787.53031    11911.606 
   92750    287.03605      210.475   -3182.4999   -2755.5555    1203.2351    11913.448 
   92800     297.2888    210.86227   -3195.4089   -2753.2143    809.67363    11915.645 
   92850    304.42896    211.08657   -3202.8857   -2750.0707    543.09461    11918.025 
   92900    269.11619    210.02664   -3167.5548   -2767.2649    1408.0764     11920.53 
   92950    298.66093    210.93168   -3197.7226   -2753.4871    449.00239    11923.439 
   93000    304.05699    211.11306   -3203.7688    -2751.507     225.3935    11926.396 
   93050    303.52373    206.10085   -3203.3617   -2751.8931    257.56971    11929.256 
   93100    298.75602    205.97563   -3199.1878   -2754.8109    360.74697    11932.009 
   93150    285.25818    205.57532   -3185.8439    -2761.544    683.65923    11934.711 
   93200    278.02377    205.39644   -3179.8813    -2766.342     816.6476    11937.535 
   93250    297.21211    205.99232   -3199.7438   -2757.6633     230.1958    11940.514 
   93300    300.18151      206.104   -3203.4668   -2756.9695   -31.951956    11943.408 
   93350    305.10899    206.17451   -3205.8172   -2751.9907   -104.07241    11946.042 
   93400    283.30512    205.58474    -3186.158   -2764.7632    523.56911    11948.414 
   93450    292.44419    205.85047   -3195.0156    -2760.027    254.30164    11950.764 
   93500    282.75043    205.61441    -3187.147   -2766.5772    436.61846    11953.037 
   93550    285.96915    205.62631   -3187.5436   -2762.1861    329.93204    11955.276 
   93600    285.41334    205.63246   -3187.7486   -2763.2179    269.03573     11957.45 
   93650    280.78052     205.6313   -3187.7099   -2770.0701    352.43437    11959.531 
   93700    297.27535    206.13025   -3204.3418   -2762.1672   -155.20127    11961.529 
   93750    292.91708    205.99612   -3199.8705   -2764.1786   -167.60169    11963.219 
   93800     272.1794    205.39245   -3179.7485   -2774.9022    343.25008      11964.6 
   93850    293.08918    206.07015   -3202.3384   -2766.3905   -157.98894    11965.856 
   93900    299.95739    206.22986   -3207.6621   -2761.4983   -314.06154      11966.8 
   93950    290.16392    205.99627   -3199.8758    -2768.279   -54.578163    11967.329 
   94000     283.3246    205.78783   -3192.9275   -2771.5037    81.918173    11967.556 
   94050    287.52801    205.99008   -3199.6692   -2771.9931   -149.81311     11967.55 
   94100    285.85004    205.97564   -3199.1881   -2774.0078   -216.14586    11967.201 
   94150    285.45153    206.02211    -3200.737   -2776.1495   -311.27388    11966.465 
   94200    289.97041    206.09678   -3203.2259   -2771.9169   -369.63813    11965.291 
   94250    273.22261    205.62414   -3187.4713   -2781.0733    90.521987    11963.668 
   94300    277.66196    205.75293   -3191.7644   -2778.7632   -46.574387    11961.774 
   94350    284.95733    206.08913   -3202.9711   -2779.1187   -303.70378     11959.58 
   94400    290.16045    206.28937   -3209.6458   -2778.0541   -539.70726    11956.946 
   94450    295.70753    206.48408    -3216.136   -2776.2934   -695.99166    11953.717 
   94500    277.11835    205.93101   -3197.7004   -2785.5079   -98.923284    11949.859 
   94550    280.91277    206.14452   -3204.8173   -2786.9808   -179.20141    11945.608 
   94600    289.58306    206.48589   -3216.1964   -2785.4635   -440.83761    11940.943 
   94650    271.06299    205.99091    -3199.697   -2796.5114    92.262667    11935.779 
   94700    288.18331    206.50353   -3216.7845   -2788.1337    -295.5609    11930.294 
   94750    282.44572    206.29564   -3209.8546    -2789.738   -130.77573    11924.372 
   94800    284.77815    206.39907   -3213.3023   -2789.7163   -111.34626    11918.047 
   94850    277.73503    206.29621   -3209.8738    -2796.764    144.03621    11911.353 
   94900    275.49151    206.27618   -3209.2062   -2799.4334    246.69071      11904.4 
   94950    284.85849    206.64292   -3221.4305   -2797.7251   -9.1152617     11897.23 
   95000    281.14187    206.51843   -3217.2811   -2799.1039    201.49304    11889.749 
   95050    285.53902    201.69168   -3223.0561   -2798.3384    123.15593    11882.031 
   95100    288.31385     201.7372   -3224.5733   -2795.7283    66.375216    11874.023 
   95150    279.45639    201.60797   -3220.2656   -2804.5954    370.71934    11865.713 
   95200     285.6112    201.77572   -3225.8572   -2801.0322     406.9003    11857.244 
   95250    283.19908    201.77528   -3225.8426   -2804.6054    502.61661    11848.638 
   95300    281.23332     201.6905   -3223.0166   -2804.7034    661.39586    11839.942 
   95350    284.43988    201.77778   -3225.9262   -2802.8434    701.09407    11831.237 
   95400     298.5137    202.21873   -3240.6243   -2796.6078    410.38992     11822.51 
   95450    300.64066    202.23323   -3241.1075   -2793.9273    399.28428    11813.665 
   95500    298.92211    202.14461   -3238.1535   -2793.5295    541.93428    11804.682 
   95550    289.34441    201.97609   -3232.5364   -2802.1585    874.14498    11795.617 
   95600    274.94529    201.68309   -3222.7697   -2813.8094    1349.7627     11786.67 
   95650    288.73944    202.01619   -3233.8731   -2804.3951    1205.2043    11778.041 
   95700    302.26598    202.41585   -3247.1951   -2797.5973    942.51023    11769.687 
   95750     296.5459    202.22139    -3240.713   -2799.6234    1203.5207    11761.499 
   95800    283.13431    201.82116    -3227.372   -2806.2312    1739.4597    11753.598 
   95850    292.45055    202.10043   -3236.6808   -2801.6828     1604.575     11746.24 
   95900    308.11626    202.51269    -3250.423   -2792.1234    1223.9504    11739.355 
   95950    285.70591    202.00436   -3233.4785   -2808.5126     1774.286    11732.804 
   96000    289.31026    202.14256   -3238.0853   -2807.7582     1732.984    11726.786 
   96050    295.22481      202.226   -3240.8668   -2801.7422    1702.5357    11721.348 
   96100    299.55504    202.34031   -3244.6771   -2799.1117    1689.4188    11716.444 
   96150    298.62658    202.29587   -3243.1955   -2799.0111    1808.6207     11712.08 
   96200    295.61935    202.14925   -3238.3084    -2798.597     1922.191    11708.326 
   96250    303.51971    202.53983   -3251.3277   -2799.8651    1695.4336    11705.199 
   96300    287.05886    201.96792   -3232.2641   -2805.2858    2133.7878    11702.685 
   96350     303.6897    202.41788   -3247.2628   -2795.5474    1692.3362    11700.877 
   96400    302.05315    202.33829   -3244.6095   -2795.3284    1763.2348    11699.653 
   96450    300.77469    202.30099   -3243.3663   -2795.9868    1840.5044    11699.043 
   96500    301.66693    202.25402   -3241.8007    -2793.094    1866.8673    11699.067 
   96550    294.89342    202.07933   -3235.9775   -2797.3459    2071.0764    11699.741 
   96600     285.3508    201.82551   -3227.5169   -2803.0792    2327.8377    11701.191 
   96650    302.52903    202.25007   -3241.6689   -2791.6799    1941.0095      11703.5 
   96700    298.61294    202.13458   -3237.8193   -2793.6551    1983.7329    11706.553 
   96750    314.73911    202.61331   -3253.7769   -2785.6264    1610.3573    11710.315 
   96800    282.13886    201.65173   -3221.7244   -2802.0643     2481.342    11714.696 
   96850    287.04737    201.74351   -3224.7836   -2797.8224    2294.4667    11720.018 
   96900    293.08727      201.865   -3228.8333   -2792.8882    2037.9025    11726.269 
   96950    313.81915    202.41012   -3247.0039   -2780.2217    1464.4055      11733.3 
   97000    311.07636    202.23127   -3241.0423   -2778.3397    1482.5531     11740.87 
   97050    295.99435    201.85498   -3228.4995   -2788.2303    1791.0077    11748.955 
   97100     303.0168    202.07881   -3235.9604   -2785.2458     1468.937    11757.679 
   97150    294.35266    201.82668   -3227.5561   -2789.7289    1625.5601     11766.94 
   97200    281.94858    201.41315   -3213.7717   -2794.3946    1913.5539    11776.834 
   97250    291.44911    201.56991    -3218.997   -2785.4885    1609.2219    11787.466 
   97300    299.32841    201.75286   -3225.0954   -2779.8671    1255.1093    11798.691 
   97350    308.35015    201.97093   -3232.3643   -2773.7168    812.04521    11810.346 
   97400      297.883    201.59792   -3219.9306   -2776.8522     963.6022    11822.226 
   97450    288.28033    201.34571   -3211.5235   -2782.7284    1111.0396    11834.389 
   97500    302.78184    201.72012    -3224.004    -2773.639    629.16569     11846.88 
   97550    307.93961    201.77635   -3225.8782   -2767.8413    417.75034    11859.477 
   97600     295.9328    201.35085    -3211.695   -2771.5174    633.67997    11872.105 
   97650    298.30472    201.31717   -3210.5723   -2766.8667    521.27389    11884.829 
   97700    302.10519    201.43471   -3214.4902   -2765.1316    396.92798    11897.582 
   97750    308.28707    201.56124    -3218.708   -2760.1544    161.11447    11910.305 
   97800    288.53837    200.89182   -3196.3939   -2767.2149    441.00276    11922.911 
   97850    281.07481    200.72106   -3190.7022   -2772.6247     505.0995    11935.503 
   97900    279.55245    200.65407    -3188.469   -2772.6559    412.80493    11948.147 
   97950    303.85019    201.24284   -3208.0948   -2756.1407   -356.56217    11960.731 
   98000     288.4775    200.66832   -3188.9441   -2759.8556    -33.20318    11972.959 
   98050    286.57603    200.59836   -3186.6119   -2760.3518   -55.397933    11984.903 
   98100    290.72766    200.71147   -3190.3824    -2757.947   -269.59881    11996.576 
   98150    303.90405    200.98991   -3199.6637   -2747.6295   -632.24553    12007.849 
   98200    297.01717    200.76872   -3192.2906   -2750.5001   -567.61654    12018.555 
   98250    284.01742    200.44064   -3181.3548   -2758.9004    -401.4037    12028.706 
   98300    303.16999    200.90625   -3196.8749   -2745.9325   -953.08579    12038.346 
   98350    299.71196    200.69256    -3189.752   -2743.9531   -920.96334    12047.245 
   98400    301.71515    200.70138    -3190.046   -2741.2676   -982.55142    12055.364 
   98450    301.12779    200.67439   -3189.1464   -2741.2416   -936.81668    12062.685 
   98500     292.4226    200.42521   -3180.8404    -2745.884   -692.93959    12069.228 
   98550    285.18356    200.17152    -3172.384   -2748.1951   -515.04741    12075.139 
   98600    299.73605    200.55064   -3185.0212   -2739.1865   -888.02956    12080.457 
   98650    279.95771    199.92516   -3164.1719    -2747.756   -468.02472    12085.066 
   98700    300.29825     200.4906     -3183.02   -2736.3491   -1078.2003    12089.089 
   98750    296.25469    200.37729   -3179.2429   -2738.5865   -1093.5441     12092.29 
   98800    292.02894    200.27706   -3175.9021   -2741.5312   -1013.5838    12094.611 
   98850    296.20213    200.30963   -3176.9877   -2736.4095   -1093.2448     12096.09 
   98900    308.77569    200.60175   -3186.7251   -2727.4447   -1354.3135    12096.678 
   98950    291.34467    200.06536   -3168.8452   -2735.4921   -827.78541    12096.294 
   99000    286.95773    199.91159   -3163.7197   -2736.8918   -561.57533    12095.141 
   99050    292.89024    200.12762   -3170.9206   -2735.2686   -663.50727    12093.368 
   99100    296.06704    200.15544   -3171.8479   -2731.4706   -746.73412    12090.952 
   99150    311.08291    200.60016   -3186.6721   -2723.9598   -1166.2792    12087.827 
   99200    302.20299    200.31948   -3177.3161   -2727.8121   -901.13187    12083.809 
   99250    305.47243    200.48187   -3182.7289   -2728.3618   -886.99561    12078.971 
   99300    293.31631    200.07913   -3169.3043   -2733.0185   -453.87745    12073.379 
   99350    294.47346    200.15978   -3171.9926   -2733.9857   -388.60426    12067.207 
   99400    295.44581    200.09236   -3169.7452   -2730.2919   -405.15123     12060.55 
   99450    315.87022    200.73221   -3191.0736   -2721.2405   -986.34441    12053.337 
   99500    308.66017    200.41339   -3180.4463   -2721.3377   -699.40922    12045.325 
   99550    301.44674    200.37194   -3179.0648   -2730.6856    -355.8262     12036.61 
   99600     292.8703    200.14346   -3171.4486   -2735.8263    89.914381    12027.397 
   99650    284.56223      199.905      -3163.5   -2740.2353    382.57293    12017.936 
   99700    305.51271    200.53286   -3184.4287   -2730.0017   -119.70546    12008.343 
   99750    318.24017    200.82838   -3194.2793   -2720.9211   -340.09125    11998.394 
   99800    309.97044    200.61782   -3187.2607   -2726.2032   -2.6902179     11987.98 
   99850    312.05767    200.71282   -3190.4275   -2726.2654    91.493959    11977.256 
   99900    310.98209    200.62889   -3187.6295   -2725.0672    229.81638    11966.283 
   99950    314.65537    200.82619   -3194.2064   -2726.1804    254.54661    11955.097 
  100000    297.05826    200.31397   -3177.1322   -2735.2805    849.45943    11943.782 
Loop time of 26.73 on 1 procs for 100000 steps with 500 atoms

Performance: 323.232 ns/day, 0.074 hours/ns, 3741.113 timesteps/s
99.8% CPU use with 1 MPI tasks x 1 OpenMP threads

MPI task timing breakdown:
Section |  min time  |  avg time  |  max time  |%varavg| %total
---------------------------------------------------------------
Pair    | 22.194     | 22.194     | 22.194     |   0.0 | 83.03
Bond    | 0.0071695  | 0.0071695  | 0.0071695  |   0.0 |  0.03
Neigh   | 0.49271    | 0.49271    | 0.49271    |   0.0 |  1.84
Comm    | 0.77437    | 0.77437    | 0.77437    |   0.0 |  2.90
Output  | 0.018193   | 0.018193   | 0.018193   |   0.0 |  0.07
Modify  | 2.7298     | 2.7298     | 2.7298     |   0.0 | 10.21
Other   |            | 0.5136     |            |       |  1.92

Nlocal:    500 ave 500 max 500 min
Histogram: 1 0 0 0 0 0 0 0 0 0
Nghost:    1586 ave 1586 max 1586 min
Histogram: 1 0 0 0 0 0 0 0 0 0
Neighs:    14643 ave 14643 max 14643 min
Histogram: 1 0 0 0 0 0 0 0 0 0

Total # of neighbors = 14643
Ave neighs/atom = 29.286
Ave special neighs/atom = 0
Neighbor list builds = 586
Dangerous builds = 0

write_data      ${walker}/final_restart_file
write_data      0/final_restart_file

quit
