LAMMPS (19 May 2017)
Processor partition = 13
  using 1 OpenMP thread(s) per MPI task
# gREM variables
variable        lambda world 1000 1005 1010 1015 1020 1025 1030 1035 1040 1045 1050 1055 1060 1065 1070 1075
variable        walker world 0 1 2 3 4 5 6 7 8 9 10 11 12 13 14 15
variable        replica world 1 3 7 2 4 6 5 8 11 14 0 10 12 13 9 15

variable        T0 equal 300.0
variable        press equal 0.0

units           real
atom_style      full
pair_style      lj/cut 5.0

# LJ particles
read_data       ${walker}/restart_file
read_data       13/restart_file
  orthogonal box = (0.909193 0.909193 0.909193) to (24.0908 24.0908 24.0908)
  1 by 1 by 1 MPI processor grid
  reading atoms ...
  500 atoms
  reading velocities ...
  500 velocities
  0 = max # of 1-2 neighbors
  0 = max # of 1-3 neighbors
  0 = max # of 1-4 neighbors
  1 = max # of special neighbors

#dump            dump all xyz 1000 ${walker}/dump.xyz

fix             fxnpt all npt temp ${T0} ${T0} 1000.0 iso ${press} ${press} 10000.0
fix             fxnpt all npt temp 300 ${T0} 1000.0 iso ${press} ${press} 10000.0
fix             fxnpt all npt temp 300 300 1000.0 iso ${press} ${press} 10000.0
fix             fxnpt all npt temp 300 300 1000.0 iso 0 ${press} 10000.0
fix             fxnpt all npt temp 300 300 1000.0 iso 0 0 10000.0
fix             fxgREM all grem ${lambda} -.03 -30000 fxnpt
fix             fxgREM all grem 1065 -.03 -30000 fxnpt
thermo_modify   press fxgREM_press

thermo          50
thermo_style    custom step temp f_fxgREM pe etotal press vol
WARNING: New thermo_style command, previous thermo_modify settings will be lost (../output.cpp:705)
timestep        1.0

temper/grem     100000 1000 ${lambda} fxgREM fxnpt 10294 98392 ${walker}
temper/grem     100000 1000 1065 fxgREM fxnpt 10294 98392 ${walker}
temper/grem     100000 1000 1065 fxgREM fxnpt 10294 98392 13
Neighbor list info ...
  update every 1 steps, delay 10 steps, check yes
  max neighbors/atom: 2000, page size: 100000
  master list distance cutoff = 7
  ghost atom cutoff = 7
  binsize = 3.5, bins = 7 7 7
  1 neighbor lists, perpetual/occasional/extra = 1 0 0
  (1) pair lj/cut, perpetual
      attributes: half, newton on
      pair build: half/bin/newton
      stencil: half/bin/3d/newton
      bin: standard
Per MPI rank memory allocation (min/avg/max) = 5.723 | 5.723 | 5.723 Mbytes
Step Temp f_fxgREM PotEng TotEng Press Volume 
       0    305.45806    256.06857    -3035.619   -2581.2733   -622.34414    12457.503 
      50    292.91037    255.59499   -3019.8329   -2584.1509   -157.18662    12457.327 
     100    299.01785    255.75131   -3025.0438   -2580.2774   -248.80353    12456.899 
     150    296.68747    255.70866   -3023.6219   -2582.3217   -149.56257    12456.198 
     200    291.28665    255.57218   -3019.0728    -2585.806   -98.430913    12455.285 
     250    302.65365    255.94613   -3031.5377   -2581.3633   -576.04325    12454.149 
     300    292.44919    255.49993   -3016.6645   -2581.6684   -236.13144    12452.595 
     350    286.48992    255.27276    -3009.092   -2582.9599    26.852607     12450.78 
     400    308.16029    256.11023   -3037.0078   -2578.6427   -592.16255    12448.782 
     450    295.40457    255.58349   -3019.4496   -2580.0577    32.441478    12446.386 
     500    292.31653    255.59324   -3019.7745   -2584.9758    262.50714    12443.848 
     550    306.30114    256.10918   -3036.9725   -2581.3728   -174.10148    12441.288 
     600    301.70812    255.91457   -3030.4856   -2581.7177   -27.884596    12438.527 
     650    301.08931    255.78099    -3026.033   -2578.1855      56.7437    12435.601 
     700    295.37003    255.61078   -3020.3593   -2581.0188    210.51849    12432.585 
     750    308.37022      256.105   -3036.8333    -2578.156   -222.05599    12429.514 
     800    312.64309    256.20163   -3040.0544   -2575.0215    -300.7484    12426.209 
     850    298.47353    255.83386   -3027.7955   -2583.8387    185.37041    12422.631 
     900    306.19557    256.19303   -3039.7677    -2584.325   -41.841879    12418.974 
     950    301.31485    256.03353    -3034.451    -2586.268    118.47256    12415.192 
    1000     288.4453    255.48674   -3016.2246   -2587.1841     626.4348    12411.363 
    1050    300.26934    255.89682   -3029.8941   -2583.2663    360.41515    12407.701 
    1100    299.96211    255.76196   -3025.3988   -2579.2279    420.29203    12404.124 
    1150    301.48675    255.82631   -3027.5435   -2579.1048    368.46709    12400.639 
    1200    301.55614    255.82673   -3027.5577   -2579.0158    331.07844     12397.25 
    1250    304.75062    255.98131   -3032.7104    -2579.417    261.93749    12393.903 
    1300    305.97639    256.08913   -3036.3042   -2581.1875    318.51786    12390.552 
    1350    292.74324    255.52754   -3017.5846   -2582.1513    877.74571    12387.296 
    1400    307.36681    256.05579   -3035.1929   -2578.0081    467.97851    12384.332 
    1450    307.14174    256.06237   -3035.4125   -2578.5624    497.58611    12381.526 
    1500    299.38526    255.62839   -3020.9464   -2575.6335    858.58067    12378.893 
    1550    300.57701    255.76273   -3025.4244   -2578.3389    772.39539    12376.577 
    1600     314.0476    256.19027   -3039.6757   -2572.5537     337.2309     12374.54 
    1650    315.35713    256.28993   -3042.9975   -2573.9277    371.52075    12372.583 
    1700     300.9699    255.71834   -3023.9448   -2576.2749    994.28685    12370.731 
    1750    307.06924    255.98957   -3032.9858   -2576.2436    823.55389    12369.258 
    1800    325.84553    256.68587   -3056.1958   -2571.5252    100.21367    12368.073 
    1850     309.6447    256.06356   -3035.4519   -2574.8788    540.62756    12366.872 
    1900    307.53761    255.87064   -3029.0212   -2571.5824    635.03306    12365.795 
    1950    311.22264    255.97025   -3032.3417   -2569.4216    630.91033    12364.935 
    2000    301.22325    255.61358   -3020.4527   -2572.4059    1042.0007    12364.324 
    2050    302.34586     255.6885   -3022.9501   -2573.2335    948.84018    12364.133 
    2100    307.40898    255.87002   -3029.0005    -2571.753    678.84174    12364.354 
    2150    308.18012    255.88148   -3029.3828   -2570.9882     640.4819    12364.824 
    2200    307.51464    255.84414   -3028.1379   -2570.7331    668.83178      12365.5 
    2250    304.28114    255.79724   -3026.5747   -2573.9796     757.1158    12366.426 
    2300    310.22486    255.99047   -3033.0157   -2571.5797    611.59597    12367.625 
    2350    306.90403     255.8685   -3028.9501   -2572.4536    658.91058     12369.04 
    2400    301.06849    255.75529   -3025.1765   -2577.3599    821.30377    12370.688 
    2450    300.53072    255.70618   -3023.5393   -2576.5227    843.98113    12372.653 
    2500    295.95341    255.50008   -3016.6692   -2576.4609    954.19576     12374.97 
    2550    292.66801    255.40606   -3013.5353   -2578.2138    931.83132    12377.695 
    2600    291.73933    255.33723   -3011.2411    -2577.301    832.57616    12380.809 
    2650    303.46417    255.82331   -3027.4438   -2576.0638    397.56152    12384.252 
    2700    312.24821    256.05996   -3035.3321   -2570.8866    130.79915     12387.81 
    2750    307.68667    255.88167    -3029.389   -2571.7284    248.43876    12391.328 
    2800    313.14542    256.11051    -3037.017   -2571.2369   -17.117013    12394.832 
    2850    302.84883    255.85265   -3028.4217    -2577.957    258.22543    12398.219 
    2900    298.20457    255.68536   -3022.8454   -2579.2887    434.51085    12401.616 
    2950    307.84349    255.99069   -3033.0229    -2575.129    144.58765    12405.114 
    3000     298.0409    255.61713   -3020.5709   -2577.2577    479.89087    12408.602 
    3050    298.96138    255.65988   -3021.9959   -2577.3135     427.6302    12412.199 
    3100    315.73742    256.36652   -3045.5505    -2575.915    -209.8739    12415.867 
    3150    306.29395    256.03373   -3034.4575   -2578.8685   -44.242269    12419.345 
    3200    303.98577    255.88857   -3029.6191   -2577.4633    -54.26801    12422.642 
    3250    292.57839    255.52046   -3017.3486   -2582.1605    230.98804    12425.798 
    3300    299.15124    255.80829    -3026.943   -2581.9782   -29.370903    12428.912 
    3350     291.5777    255.56595    -3018.865   -2585.1653    161.65672     12431.92 
    3400    292.70499    255.57479   -3019.1596   -2583.7831    184.50542    12434.882 
    3450    293.53694    255.58732   -3019.5772   -2582.9633    177.65935     12437.82 
    3500    303.49107    255.99794   -3033.2646   -2581.8446    -239.8825    12440.695 
    3550    303.27462    256.03086   -3034.3619   -2583.2639   -355.65419    12443.316 
    3600    290.38971    255.48789    -3016.263   -2584.3303    22.482118    12445.622 
    3650    283.05693    255.20979   -3006.9931   -2585.9673    240.33074     12447.81 
    3700    294.01637    255.74348   -3024.7826   -2587.4556   -144.12103    12449.973 
    3750    291.38521    255.64488    -3021.496   -2588.0826   -129.12755    12451.965 
    3800    293.70784    255.75779   -3025.2597   -2588.3915   -243.41986    12453.732 
    3850    272.36941    254.90287   -2996.7623   -2591.6334    426.17572    12455.282 
    3900    291.73826    255.72868   -3024.2893   -2590.3508   -255.04836    12456.853 
    3950     293.6784     255.7333   -3024.4434    -2587.619   -266.27283    12458.199 
    4000    299.31434    255.94116    -3031.372   -2586.1646   -386.60163    12459.249 
    4050     302.8031     251.0844   -3036.1465   -2585.7499    -550.3383    12459.951 
    4100    301.36266    251.06428   -3035.4759   -2587.2218   -505.91243    12460.201 
    4150    289.08913    250.58886   -3019.6286   -2589.6304   -69.259697    12460.032 
    4200    298.70955    250.99615   -3033.2051   -2588.8973   -378.48273    12459.617 
    4250      289.452     250.6555   -3021.8501   -2591.3122   -133.60452    12458.882 
    4300       290.42    250.57256   -3019.0853   -2587.1076   -197.69031    12457.893 
    4350    304.78852    251.23398   -3041.1328    -2587.783   -676.21561    12456.593 
    4400    291.31386    250.75382   -3025.1274   -2591.8202   -208.86579    12454.827 
    4450    289.90158    250.63177   -3021.0589   -2589.8522   -107.82939    12452.774 
    4500    298.80245    251.00767   -3033.5889   -2589.1429   -394.70338    12450.491 
    4550    306.14399    251.27865   -3042.6215   -2587.2555   -655.80769    12447.846 
    4600    302.82287    251.31872   -3043.9572   -2593.5311   -627.51174    12444.674 
    4650    298.37288    251.11985   -3037.3283   -2593.5212   -408.34855    12440.988 
    4700    290.38966    250.76919   -3025.6396    -2593.707   -51.044387     12436.93 
    4750    298.63909    251.09817   -3036.6056   -2592.4026   -243.81819    12432.645 
    4800    297.67732    251.01607    -3033.869   -2591.0966   -123.17724    12428.098 
    4850    288.99368    250.71189   -3023.7296   -2593.8734     267.1598    12423.342 
    4900    296.93458    251.03008    -3034.336   -2592.6683    169.32248    12418.556 
    4950    298.95397    251.13119   -3037.7062   -2593.0348    160.30063    12413.718 
    5000    291.63862      250.859   -3028.6333   -2594.8429    306.92644    12408.829 
    5050    309.99679    256.56754   -3052.2515   -2591.1548   -421.57058    12403.903 
    5100     301.7948    256.30503   -3043.5009    -2594.604   -182.36755    12398.661 
    5150    287.37324    255.76584   -3025.5279   -2598.0819    419.65225    12393.196 
    5200     298.4336    256.22639   -3040.8796   -2596.9823    135.23335    12387.776 
    5250    308.90564    256.56346   -3052.1153   -2592.6416   -245.57796    12382.286 
    5300    296.20255    256.07693   -3035.8977   -2595.3189    192.59116    12376.569 
    5350    295.73606    256.06786   -3035.5952   -2595.7103    373.34996    12370.793 
    5400    286.11758      255.823   -3027.4332    -2601.855    685.53482    12365.102 
    5450    293.11488    256.04633   -3034.8777   -2598.8916    568.07787     12359.63 
    5500    295.04706    256.12667   -3037.5556   -2598.6954     642.0851    12354.359 
    5550     305.4111    256.34586   -3044.8619    -2590.586    359.59832    12349.297 
    5600    308.86467    256.50823   -3050.2742   -2590.8614    228.07848      12344.3 
    5650    293.39429    256.06397   -3035.4655   -2599.0638     793.2087    12339.336 
    5700    295.32476    256.08398   -3036.1325   -2596.8593    878.04913    12334.655 
    5750    300.88297    256.28473   -3042.8243   -2595.2836     804.8833    12330.318 
    5800    304.49929    256.44693    -3048.231   -2595.3114    674.47793    12326.284 
    5850    305.25595    256.49671   -3049.8903   -2595.8452    599.25486    12322.485 
    5900     314.8357    256.81364   -3060.4545   -2592.1603    341.68436    12318.861 
    5950    296.36584    256.14058   -3038.0194   -2597.1977    965.47258    12315.359 
    6000    298.58356    256.25212   -3041.7373   -2597.6169    959.54048    12312.199 
    6050    300.72459    256.33653    -3044.551   -2597.2459    968.77357    12309.453 
    6100    315.92009    256.90798   -3063.5994   -2593.6922    518.71256    12307.079 
    6150    317.21088    256.97905   -3065.9684   -2594.1413    429.50542    12304.878 
    6200    316.72655     256.9782   -3065.9401   -2594.8334    436.43068    12302.776 
    6250    299.32686    256.29494   -3043.1647   -2597.9387    1050.9318    12300.805 
    6300    297.49879    256.25776   -3041.9254   -2599.4185    1163.5668     12299.24 
    6350    298.27894    256.32784   -3044.2613    -2600.594    1162.1712    12298.199 
    6400    313.01181    256.82071   -3060.6902   -2595.1089    769.97061    12297.641 
    6450    293.65413    255.98744   -3032.9145   -2596.1263    1414.8461     12297.45 
    6500    310.23147    256.59975   -3053.3251   -2591.8793    773.90518    12297.819 
    6550     308.4735    256.65319   -3055.1065   -2596.2755    641.10949    12298.533 
    6600    297.72259    256.29874   -3043.2912   -2600.4514    945.79356    12299.488 
    6650    303.54698    256.44309   -3048.1031      -2596.6    846.35773    12300.805 
    6700    300.94817    256.37392   -3045.7974   -2598.1598    925.77433    12302.478 
    6750     309.7403    256.70914   -3056.9713   -2596.2561    539.21802     12304.52 
    6800    305.80615    256.58494   -3052.8314   -2597.9679    588.02828    12306.752 
    6850    291.91443    256.09031   -3036.3436    -2602.143    1039.7685    12309.201 
    6900    300.83459    256.45372   -3048.4572   -2600.9886    771.99772    12312.066 
    6950    295.75307    256.25659   -3041.8865   -2601.9762    908.95256    12315.262 
    7000    297.48418    256.22461   -3040.8204   -2598.3352    817.94005    12318.833 
    7050    304.08238    256.61563   -3053.8542   -2601.5547    455.48473    12322.715 
    7100    294.02865    256.24225   -3041.4082   -2604.0629    668.59743    12326.778 
    7150    304.63006    256.62179   -3054.0596   -2600.9455    284.68213    12331.042 
    7200    302.46318    256.46854   -3048.9514   -2599.0604    422.01201    12335.376 
    7250    302.24149    256.56452   -3052.1506   -2602.5892    385.37261    12339.822 
    7300     305.9503    256.75672   -3058.5574   -2603.4795    138.48145    12344.356 
    7350    297.66896    256.48506   -3049.5019   -2606.7418    331.21428    12348.864 
    7400    295.69491     256.4036   -3046.7866   -2606.9628    388.44704    12353.416 
    7450    285.33605    256.08092   -3036.0305   -2611.6148    695.24032    12358.099 
    7500    291.91574    256.43024   -3047.6748   -2613.4722    306.00482    12363.001 
    7550     298.3424    256.60716    -3053.572   -2609.8103   -104.45968    12367.971 
    7600    296.14965    256.50673   -3050.2242    -2609.724   -200.63615    12372.779 
    7650    293.70548    256.43188   -3047.7294   -2610.8648   -229.74149    12377.366 
    7700    297.39342    256.64587   -3054.8622    -2612.512    -454.0034    12381.702 
    7750    302.50419    256.84787   -3061.5957   -2611.6437   -662.13523    12385.659 
    7800    292.16833    256.55541    -3051.847   -2617.2688   -375.80253    12389.168 
    7850    286.42814    256.35481   -3045.1605   -2619.1203   -233.90895    12392.337 
    7900    296.25515     256.7117   -3057.0568   -2616.3997   -595.56414    12395.207 
    7950      284.255    256.25872   -3041.9574   -2619.1496   -227.49733    12397.671 
    8000    285.84699    256.36176   -3045.3921   -2620.2163   -220.30881    12399.855 
    8050    272.82379    250.80015   -3026.6716   -2620.8669    227.27163    12401.818 
    8100    285.45385    251.42568   -3047.5228   -2622.9318   -367.27901      12403.7 
    8150    300.77366    251.97805   -3065.9351   -2618.5571   -956.07744    12405.236 
    8200    292.13319    251.60213   -3053.4044   -2618.8784   -668.31539    12406.141 
    8250     294.9581    251.65444    -3055.148   -2616.4202   -807.27279    12406.513 
    8300    301.48037    251.95169   -3065.0565   -2616.6273   -1057.7984    12406.292 
    8350    295.79237    251.71003   -3057.0011   -2617.0324   -755.84634    12405.348 
    8400      283.105    251.30433   -3043.4777   -2622.3804   -224.89814    12403.838 
    8450    272.59831    251.00128   -3033.3761   -2627.9068    90.125255    12402.046 
    8500    281.10359    251.25805   -3041.9349   -2623.8146   -278.48178    12400.131 
    8550    286.98818    251.43467   -3047.8224   -2620.9492   -436.19439    12397.912 
    8600    281.35302    251.32414    -3044.138   -2625.6467    -217.6035    12395.305 
    8650    296.24908    251.82112   -3060.7041    -2620.056    -688.1891    12392.392 
    8700    287.71181    251.54641   -3051.5469   -2623.5973   -401.42782    12388.983 
    8750    285.85861    251.40904    -3046.968    -2621.775   -248.78191    12385.188 
    8800    293.08125    251.67971   -3055.9903   -2620.0541   -460.29435     12381.08 
    8850    283.13297    251.18767   -3039.5888     -2618.45   -76.520313    12376.594 
    8900    291.15214    251.63256   -3054.4188    -2621.352   -288.52373    12371.866 
    8950    302.54616    252.06002   -3068.6675    -2618.653   -519.09169    12366.812 
    9000    289.39505    251.48399   -3049.4662    -2619.013    38.142392    12361.362 
    9050    291.60363    251.63032    -3054.344   -2620.6057    72.951976    12355.731 
    9100     283.6433    251.32188   -3044.0626   -2622.1647    368.96802    12350.021 
    9150    300.99786    251.92934   -3064.3115      -2616.6   -196.97807    12344.298 
    9200    297.24911     251.7488   -3058.2933   -2616.1578   -155.17891    12338.348 
    9250    302.25414    252.01297   -3067.0989   -2617.5188   -232.78041    12332.135 
    9300    298.45921    251.76733   -3058.9111   -2614.9757    150.34236    12325.662 
    9350    305.28604    252.01237   -3067.0791   -2612.9892    106.37607    12319.073 
    9400    302.44773    251.89356   -3063.1186   -2613.2505    307.66216    12312.398 
    9450    301.71431     251.9112   -3063.7067   -2614.9295    416.16265    12305.716 
    9500    313.09622     252.3345   -3077.8167   -2612.1098    150.65638    12299.069 
    9550    284.73933    251.15043   -3038.3477   -2614.8195    1263.9322    12292.426 
    9600    286.34225    251.15222   -3038.4073   -2612.4949    1322.0518     12286.25 
    9650     308.9871    252.01902   -3067.3005   -2607.7056    595.85851    12280.623 
    9700    318.39562     252.3506   -3078.3534    -2604.764    417.63135    12275.187 
    9750    308.46253    251.88312   -3062.7705   -2603.9559    855.63219    12269.853 
    9800    307.33193    251.77075   -3059.0249   -2601.8919    909.96829    12264.799 
    9850    309.02474    251.88301   -3062.7671   -2603.1162    925.14804    12260.075 
    9900    293.33115    251.28228   -3042.7427   -2606.4348    1630.6836    12255.746 
    9950    299.04663    251.59626   -3053.2086   -2608.3994    1471.1454    12252.118 
   10000    311.78112    251.91087   -3063.6957   -2599.9449    1140.3232    12249.134 
   10050     307.8697      246.655   -3055.1665   -2597.2337    1442.7276    12246.644 
   10100     315.9304     246.8359   -3061.1967   -2591.2742    1234.3124    12244.748 
   10150     327.1211    247.13001   -3071.0003   -2584.4325    848.41317    12243.348 
   10200    311.92715    246.55052    -3051.684    -2587.716       1398.5    12242.302 
   10250     307.6554    246.37268   -3045.7558   -2588.1418    1601.3188    12241.825 
   10300    313.74268    246.55265   -3051.7551   -2585.0866    1481.2691    12242.045 
   10350    299.94013    246.09745   -3036.5817   -2590.4435    1989.9463    12242.961 
   10400    319.74299    246.78828   -3059.6093   -2584.0158    1398.3115    12244.747 
   10450    317.10901    246.68969   -3056.3231   -2584.6475    1455.5051    12247.178 
   10500    319.48736    246.84296   -3061.4322   -2586.2189    1300.5886    12250.224 
   10550    314.83004    246.60306   -3053.4352   -2585.1494    1397.7512    12253.853 
   10600    318.43092     246.6425   -3054.7498    -2581.108    1304.4415    12258.083 
   10650    331.49758    247.11141   -3070.3804   -2577.3029    794.88288    12262.861 
   10700    314.75747    246.58579   -3052.8595   -2584.6816    1255.2535    12267.987 
   10750    317.45107    246.67552   -3055.8506   -2583.6662    1137.6262    12273.618 
   10800    321.26664    246.85247   -3061.7489   -2583.8892    873.72681    12279.724 
   10850    308.46456    246.26642   -3042.2141   -2583.3964    1251.7955    12286.209 
   10900    310.00975    246.27641    -3042.547    -2581.431    1195.5752    12293.232 
   10950    320.19109    246.72297   -3057.4323   -2581.1723    695.28671    12300.764 
   11000    321.87711    246.78573   -3059.5243   -2580.7565    442.83611    12308.573 
   11050    304.04679    251.08869   -3036.2898   -2584.0432    938.27125    12316.545 
   11100     302.8286     250.9882   -3032.9399   -2582.5053    1002.7638    12324.894 
   11150    312.30654    251.41823   -3047.2744   -2582.7421    550.35567    12333.669 
   11200    324.17402    251.76711   -3058.9037   -2576.7194    129.78341    12342.639 
   11250    307.93832    251.20749   -3040.2496   -2582.2147    574.06277    12351.634 
   11300    301.67991    251.06033   -3035.3444   -2586.6184    671.84753    12360.807 
   11350     304.4684    251.16975   -3038.9917    -2586.118    473.44286     12370.24 
   11400    315.80265    251.60902   -3053.6339   -2583.9014    47.031318    12379.823 
   11450    299.14775    251.06086   -3035.3621   -2590.4025    424.42957    12389.376 
   11500    307.82292    251.39867   -3046.6222   -2588.7589    34.221351        12399 
   11550    301.28433    251.10776   -3036.9252   -2588.7876     226.5246    12408.586 
   11600    297.47203    251.00084   -3033.3614   -2590.8943    292.75941    12418.168 
   11650    295.56097    250.97014   -3032.3381   -2592.7135    204.75545    12427.809 
   11700    299.14561    251.17768    -3039.256   -2594.2995   -109.68986    12437.445 
   11750    292.13688    250.89974   -3029.9915     -2595.46   -124.31791    12446.937 
   11800    288.21295     250.8358   -3027.8601   -2599.1651   -230.65716    12456.232 
   11850    291.31217    251.00532   -3033.5107   -2600.2059   -481.09476    12465.284 
   11900    294.88117    251.20892   -3040.2972   -2601.6838    -775.3282     12473.95 
   11950    296.04158    251.29936    -3043.312   -2602.9726   -963.80228    12482.053 
   12000    285.00724      250.997   -3033.2333   -2609.3067   -830.26501     12489.52 
   12050    292.75214    251.31607   -3043.8689   -2608.4223   -1210.7069    12496.354 
   12100    283.75872    250.99312    -3033.104   -2611.0344   -1020.6075    12502.418 
   12150    286.40715    251.13819   -3037.9397   -2611.9308   -1211.3087    12507.752 
   12200    288.90455    251.19754   -3039.9179   -2610.1943   -1413.5385    12512.266 
   12250    289.66258    251.30071   -3043.3569   -2612.5058   -1621.2636    12515.836 
   12300    290.66462    251.36462   -3045.4873   -2613.1457   -1730.3682    12518.347 
   12350    273.17147    250.69237   -3023.0792   -2616.7573   -1085.1667    12519.759 
   12400    271.64386     250.7049   -3023.4967   -2619.4471   -983.88362    12520.382 
   12450    278.93581     251.1214     -3037.38   -2622.4841   -1283.5068    12520.294 
   12500    279.51731    251.17798   -3039.2659   -2623.5051   -1360.7693    12519.327 
   12550    276.35962    251.13031   -3037.6772   -2626.6132   -1325.6687    12517.449 
   12600    285.37956    251.38477    -3046.159   -2621.6786   -1552.9866    12514.647 
   12650    273.95334    250.91594   -3030.5313   -2623.0465   -1107.9274    12510.845 
   12700    275.94374    251.03853   -3034.6177   -2624.1723   -1125.4735     12506.21 
   12750    276.66906    251.05079   -3035.0263    -2623.502   -1133.1244    12500.778 
   12800    282.97199    251.33948   -3044.6492   -2623.7498   -1360.2617    12494.528 
   12850    283.74329    251.39148   -3046.3827   -2624.3361   -1350.6006    12487.358 
   12900    283.05933    251.35932   -3045.3106   -2624.2812   -1158.1601    12479.254 
   12950    280.97311    251.27133   -3042.3776   -2624.4514   -948.71568    12470.319 
   13000    284.74952    251.42721   -3047.5738   -2624.0305    -1056.713    12460.661 
   13050    293.63258    251.81254    -3060.418   -2623.6617   -1249.9834    12450.223 
   13100    280.65271    251.27126   -3042.3753   -2624.9256   -582.18189     12438.95 
   13150    270.79147    250.88862   -3029.6207   -2626.8389   -68.982286    12427.166 
   13200    292.34361    251.74295   -3058.0983   -2623.2594   -714.95509    12415.109 
   13250    292.17779    251.74952   -3058.3172   -2623.7249   -633.76447    12402.525 
   13300    295.09311    251.90539   -3063.5131   -2624.5845   -589.97173      12389.4 
   13350    296.44216    251.95042   -3065.0141   -2624.0789   -515.72419    12375.773 
   13400    283.98456    251.46852   -3048.9508   -2626.5453    58.095928     12361.72 
   13450    298.26617     251.9215   -3064.0499   -2620.4016   -240.97732     12347.48 
   13500    307.51802    252.26633   -3075.5442   -2618.1344   -407.53516     12332.95 
   13550    301.14574     252.0338   -3067.7935    -2619.862    13.978517    12318.059 
   13600    299.48856    252.06399   -3068.7998   -2623.3333    257.63056    12303.005 
   13650    288.07929    251.61613   -3053.8711    -2625.375    828.89099    12287.971 
   13700     298.6688    251.97401   -3065.8005   -2621.5532    590.57458    12273.202 
   13750     305.9195    252.29961   -3076.6536   -2621.6215    423.54288    12258.613 
   13800    304.35411    252.17664   -3072.5546    -2619.851    766.81711    12244.139 
   13850     306.6271    252.15823   -3071.9412   -2615.8566    1083.1664    12229.937 
   13900     297.5455     251.8598   -3061.9932   -2619.4169    1478.0564    12216.193 
   13950     311.2461    252.30221   -3076.7404   -2613.7854    1098.3028    12203.075 
   14000    320.15976    252.55462    -3085.154   -2608.9407    962.85501    12190.413 
   14050    313.85735    252.32957   -3077.6523   -2610.8133    1339.1075    12178.156 
   14100    320.00484     252.5477   -3084.9235   -2608.9405    1281.8222     12166.46 
   14150    315.06606    252.38141   -3079.3804   -2610.7435    1573.0387    12155.339 
   14200    313.43761    252.40473   -3080.1576   -2613.9429    1719.7223    12144.927 
   14250    311.67584    252.40276   -3080.0919   -2616.4977     1893.532    12135.305 
   14300    298.88578     251.9165   -3063.8832   -2619.3133    2423.8299    12126.594 
   14350    307.44754    252.21212   -3073.7374   -2616.4325    2268.1169    12119.013 
   14400     306.0807    252.09775   -3069.9249   -2614.6531    2388.9619    12112.549 
   14450     320.0363     252.6601   -3088.6701   -2612.6404    1991.2474     12107.19 
   14500    321.98426    252.73278   -3091.0925   -2612.1653     1954.151    12102.771 
   14550    318.71959    252.66867   -3088.9556   -2614.8844    2061.3764    12099.254 
   14600    326.55524    252.88685   -3096.2285   -2610.5023    1865.7472    12096.678 
   14650    319.25431    252.64202   -3088.0674   -2613.2008    2081.5685    12094.987 
   14700    321.92728    252.79843   -3093.2809   -2614.4385    1977.1859    12094.224 
   14750    306.89039    252.29499   -3076.4996   -2620.0234    2431.3761    12094.406 
   14800    308.97806    252.24498   -3074.8328   -2615.2514    2406.4823     12095.71 
   14850    315.76364     252.5617   -3085.3901   -2615.7157    2207.9547    12098.148 
   14900    298.10245     252.0563   -3068.5434   -2625.1386    2691.8755    12101.674 
   14950    312.48285    252.55194   -3085.0648   -2620.2702    2143.2894    12106.432 
   15000    315.53531    252.69432   -3089.8106   -2620.4757    1934.9364    12112.221 
   15050    312.79536    252.50648   -3083.5493   -2618.2899    1932.0631    12118.923 
   15100     317.3455    252.70803   -3090.2678   -2618.2404    1608.7173    12126.505 
   15150    315.81624    252.77336   -3092.4453   -2622.6926    1566.2247    12134.827 
   15200    318.37502    252.85226   -3095.0753   -2621.5166     1394.125    12143.839 
   15250    316.78536    252.80084   -3093.3612    -2622.167    1383.2107    12153.462 
   15300    305.91326    252.34803   -3078.2677   -2623.2449    1672.5685    12163.709 
   15350    316.96026    252.80935   -3093.6449   -2622.1905    987.41779    12174.682 
   15400    317.10805    252.78181   -3092.7271    -2621.053    771.75852    12186.066 
   15450    289.61491      251.712   -3057.0668   -2626.2865    1479.6198    12197.781 
   15500    306.65625    252.37331   -3079.1104   -2622.9824    776.49932    12210.068 
   15550    296.57805    252.15436    -3071.812   -2630.6747    910.41878    12222.696 
   15600    304.61054    252.45573   -3081.8578   -2628.7727    509.00781    12235.641 
   15650    299.74333    252.18494   -3072.8315    -2626.986    519.99041    12248.748 
   15700    284.37013    251.65462   -3055.1538   -2632.1748    818.07787    12262.026 
   15750    301.47535    252.29028   -3076.3427   -2627.9209    122.92737    12275.543 
   15800    292.03455    251.90106   -3063.3685   -2628.9892    365.14563    12289.038 
   15850    288.73862    251.86409   -3062.1363   -2632.6594     358.7362     12302.57 
   15900    297.67028     252.1987   -3073.2899    -2630.528   -142.89535    12316.127 
   15950    296.73162    252.18839   -3072.9463   -2631.5805   -333.52101    12329.462 
   16000    285.40357    251.65756    -3055.252   -2630.7358   -112.26677    12342.487 
   16050    288.81236    246.78355   -3059.4517   -2629.8652   -385.83782    12355.231 
   16100    286.30533    246.63453   -3054.4843   -2628.6269   -452.99928     12367.59 
   16150    289.83567    246.77525   -3059.1751   -2628.0665   -663.57135    12379.503 
   16200    279.41074    246.41395   -3047.1317   -2631.5294   -431.78009    12390.893 
   16250    282.36501    246.48121   -3049.3737   -2629.3771   -591.03922    12401.827 
   16300    288.37021    246.63693   -3054.5642   -2625.6353   -825.43528    12412.227 
   16350    290.92712    246.62816   -3054.2721     -2621.54   -983.85507    12421.981 
   16400    283.07156    246.44869   -3048.2898   -2627.2423   -890.98288    12431.008 
   16450    286.70632    246.55845   -3051.9483   -2625.4944   -1042.1851    12439.322 
   16500    289.71501    246.66985   -3055.6618   -2624.7327   -1219.0817    12446.866 
   16550    298.93797    246.97574   -3065.8578   -2621.2103   -1546.5973     12453.52 
   16600    283.71764    246.45914    -3048.638   -2626.6295   -1128.2144    12459.157 
   16650    279.88159    246.37555   -3045.8516   -2629.5489   -1004.6656    12463.947 
   16700    281.08527    246.40652   -3046.8841    -2628.791    -1090.548    12468.003 
   16750    283.68541    246.46099   -3048.6997   -2626.7391   -1223.7148    12471.268 
   16800    278.84934    246.25646   -3041.8821   -2627.1148   -1049.5811    12473.685 
   16850    274.68444    246.04574   -3034.8581   -2626.2858   -861.10125     12475.35 
   16900    277.24903    246.08529   -3036.1764   -2623.7894   -903.94711    12476.341 
   16950    283.55246    246.25766   -3041.9219   -2620.1591   -1155.4843     12476.66 
   17000    292.83148    246.51097   -3050.3657    -2614.801   -1469.2466    12476.151 
   17050    288.57111    251.35796   -3045.2654   -2616.0378   -1216.7516    12474.679 
   17100    282.05348    251.13534   -3037.8447   -2618.3115   -864.34932    12472.394 
   17150    279.78307    250.92698   -3030.8992   -2614.7431   -707.02082    12469.476 
   17200    278.67558    250.82678   -3027.5594   -2613.0506   -598.33253    12466.026 
   17250    300.16067     251.5708     -3052.36   -2605.8937   -1156.0831    12462.068 
   17300    298.37129    251.40072   -3046.6907    -2602.886   -955.03073     12457.38 
   17350    295.28578    251.22805   -3040.9351   -2601.7199   -808.29515    12452.038 
   17400    299.00516    251.36565   -3045.5217   -2600.7742   -827.62256    12446.088 
   17450    284.49604    250.78603   -3026.2011   -2603.0348   -175.09189    12439.595 
   17500    295.90307    251.14964   -3038.3213   -2598.1879   -388.31532    12432.848 
   17550    294.58946    251.04345   -3034.7817   -2596.6022   -257.10643    12425.794 
   17600    293.88699    251.08409   -3036.1364   -2599.0018   -108.34448    12418.477 
   17650    298.73426    251.24646   -3041.5486   -2597.2041   -72.557944    12410.981 
   17700     298.3333    251.16726   -3038.9086   -2595.1604    86.543323    12403.351 
   17750     298.8382    251.17556   -3039.1852    -2594.686    29.595753    12395.648 
   17800    315.31359    251.77211   -3059.0703   -2590.0653    -457.5736    12387.819 
   17850    301.36013    251.13225   -3037.7417   -2589.4913    162.25839    12379.714 
   17900    295.67138    250.86323   -3028.7744   -2588.9856    561.51547    12371.575 
   17950    294.73857    250.81185   -3027.0618   -2588.6605    708.96257    12363.646 
   18000    305.05819    251.23668   -3041.2227   -2587.4717     453.0272    12355.983 
   18050    304.06685    256.07443   -3035.8145   -2583.5381    685.15191    12348.497 
   18100    295.32414     255.7135   -3023.7833    -2584.511    1064.8571    12341.318 
   18150    309.30245    256.37688   -3045.8961   -2585.8322    533.97562    12334.579 
   18200    316.87342    256.61009   -3053.6697   -2582.3445    413.09269    12328.084 
   18250    312.79907    256.48588   -3049.5292   -2584.2643    699.38892    12321.733 
   18300    309.30011    256.30773   -3043.5909   -2583.5304    949.51858    12315.669 
   18350    307.22848    256.22583    -3040.861    -2583.882    1053.5455    12310.033 
   18400    316.67183    256.51427   -3050.4758   -2579.4505    731.64951    12304.856 
   18450    322.53319    256.78895   -3059.6316   -2579.8879    540.65326    12299.974 
   18500    301.19523    255.89946    -3029.982   -2581.9769    1362.8749    12295.345 
   18550    311.98247    256.28645   -3042.8815   -2578.8312    1117.0654    12291.304 
   18600    310.80171    256.16096   -3038.6987   -2576.4047    1318.1507    12287.802 
   18650    309.37914    256.20161   -3040.0536   -2579.8756    1396.5426     12284.91 
   18700    312.74468     256.4827   -3049.4235   -2584.2395    1287.2839    12282.654 
   18750    297.34595    255.90425   -3030.1415   -2587.8619    1826.0765    12281.029 
   18800    301.72052    256.03631   -3034.5436   -2585.7572    1705.1596    12280.248 
   18850    301.06186    255.94165   -3031.3884   -2583.5817    1690.4555    12280.296 
   18900    328.51458    256.98429    -3066.143   -2577.5025     660.8647    12281.068 
   18950    318.98309     256.7149   -3057.1633   -2582.7001    841.73077    12282.141 
   19000    313.90367    256.56461   -3052.1538   -2585.2459    1001.8016    12283.522 
   19050    303.83697    256.19514    -3039.838   -2587.9035    1386.2065    12285.338 
   19100    308.14108     256.3829   -3046.0967   -2587.7602    1282.0049    12287.745 
   19150    313.12418    256.47206   -3049.0686   -2583.3201    984.90745    12290.713 
   19200    319.72866    256.81977   -3060.6591    -2585.087    568.26606    12294.053 
   19250    301.56342    256.23318    -3041.106   -2592.5532      1120.99      12297.6 
   19300    308.56068    256.50477   -3050.1591   -2591.1984    853.73191    12301.569 
   19350    321.40583    256.97088   -3065.6961   -2587.6293     348.1208    12305.844 
   19400    301.92672    256.25746   -3041.9153   -2592.8222    913.86456    12310.223 
   19450    303.77854    256.29192    -3043.064   -2591.2165    786.07657    12314.897 
   19500    309.91562    256.57382   -3052.4606   -2591.4846    460.81252    12319.828 
   19550    303.53588    256.36431   -3045.4771   -2593.9905      681.728    12324.877 
   19600    292.52598    256.00234   -3033.4114   -2598.3012    1013.2876    12330.147 
   19650    305.50596    256.57366   -3052.4554   -2598.0384    388.02953     12335.76 
   19700    310.15855    256.67895   -3055.9651   -2594.6278    106.46684    12341.437 
   19750    291.72911    256.01511   -3033.8369   -2599.9119    648.39199    12347.045 
   19800    296.58433    256.19771   -3039.9236   -2598.7769    504.98159    12352.814 
   19850    293.88366    256.12318   -3037.4392   -2600.3096    442.86025    12358.705 
   19900    294.82417    256.21695   -3040.5651   -2602.0365    259.16976    12364.657 
   19950    302.18551    256.50318   -3050.1061   -2600.6281   -51.303365    12370.584 
   20000    306.19992     256.7135   -3057.1167   -2601.6675   -293.17281    12376.304 
   20050    299.62796    251.63027   -3054.3422   -2608.6684   -254.33201    12381.713 
   20100    292.92594    251.40722   -3046.9072   -2611.2021   -143.21464    12386.807 
   20150    291.04752    251.35485   -3045.1616   -2612.2505   -101.22043    12391.636 
   20200    295.68642    251.55246   -3051.7487   -2611.9375   -273.22296    12396.217 
   20250    290.48466    251.40033   -3046.6776   -2614.6037   -195.47477    12400.473 
   20300    297.75181    251.64596   -3054.8655   -2611.9822   -485.33702    12404.415 
   20350    297.12233    251.65454   -3055.1512   -2613.2042   -484.05901     12407.92 
   20400    283.56537     251.0836   -3036.1198   -2614.3378   -43.115368    12411.005 
   20450    294.48816    251.48816   -3049.6052   -2611.5764   -471.15542    12413.847 
   20500    288.68951    251.24643   -3041.5477   -2612.1439   -345.09514    12416.316 
   20550    286.47346    251.15605    -3038.535   -2612.4274    -309.4801    12418.419 
   20600      288.612    251.28526   -3042.8419   -2613.5534   -404.80272     12420.18 
   20650    296.01886    251.55821   -3051.9403   -2611.6347   -662.84554    12421.556 
   20700    294.34512    251.52249   -3050.7495   -2612.9335   -738.43779    12422.415 
   20750    274.87998    250.75721   -3025.2404   -2616.3773   -189.21934    12422.757 
   20800    301.20232    251.79031   -3059.6769   -2611.6613   -1023.7429    12422.754 
   20850    296.69535    251.69864   -3056.6213   -2615.3095   -865.46952    12422.092 
   20900    287.42205    251.32543   -3044.1808   -2616.6623   -520.33525    12420.805 
   20950    301.35736    251.81926   -3060.6421   -2612.3959   -959.81517     12419.04 
   21000    300.72314     251.8553   -3061.8434   -2614.5405   -942.54412     12416.62 
   21050    291.26624    251.56101   -3052.0336   -2618.7972   -623.30396    12413.556 
   21100    282.61664    251.29141    -3043.047   -2622.6761   -317.92702    12410.033 
   21150    295.13596    251.75601   -3058.5336   -2619.5412   -663.38601    12406.176 
   21200     290.0042    251.53114    -3051.038   -2619.6788   -429.29589    12401.887 
   21250    291.23086     251.5662   -3052.2068    -2619.023   -379.88508    12397.228 
   21300     294.3012    251.70035   -3056.6785   -2618.9277   -428.39583    12392.244 
   21350    296.16341    251.74085   -3058.0284   -2617.5077   -308.15565    12386.923 
   21400    273.35882    250.98236   -3032.7454   -2626.1448    561.46443    12381.394 
   21450     288.4566    251.45083   -3048.3608   -2619.3035    205.87568    12376.009 
   21500     285.6852    251.29945    -3043.315   -2618.3799    289.51273    12370.679 
   21550    293.82296    251.56069   -3052.0228   -2614.9835    22.942772     12365.39 
   21600     307.3747    252.02671   -3067.5568   -2610.3603   -344.22601    12360.012 
   21650    299.29527    251.70129   -3056.7097   -2611.5307     41.93969    12354.388 
   21700    287.17765    251.23865   -3041.2882   -2614.1333    541.44661    12348.696 
   21750    301.15952    251.69675   -3056.5585   -2608.6065    105.61551    12343.164 
   21800    307.33722    251.88752   -3062.9174   -2605.7766   -74.113278    12337.609 
   21850    305.49385    251.86998   -3062.3326   -2607.9336    19.023792    12331.946 
   21900    313.39455    252.07601   -3069.2002   -2603.0496   -143.35041    12326.187 
   21950    310.66852    251.99197   -3066.3991   -2604.3032     42.05879    12320.262 
   22000    296.14825    251.46291   -3048.7637   -2608.2656    580.26329    12314.299 
   22050    308.82465    246.94237   -3064.7456   -2605.3923    281.93737    12308.499 
   22100    293.44149    246.22097    -3040.699   -2604.2271    994.62008    12302.831 
   22150    310.55208    246.76269   -3058.7563   -2596.8336    668.47074    12297.529 
   22200    317.09436    246.96096   -3065.3653   -2593.7115    534.86862    12292.503 
   22250    317.26898    246.98003    -3066.001   -2594.0875    577.44034    12287.651 
   22300    322.11801    246.99102   -3066.3675   -2587.2414    615.21835    12283.007 
   22350    312.94822    246.62656   -3054.2185   -2588.7317    1101.9709    12278.619 
   22400    312.23881    246.66039   -3055.3462   -2590.9147    1148.0501    12274.682 
   22450    318.62992    246.68439   -3056.1463   -2582.2085    1029.7659    12271.241 
   22500    308.15978    246.19494   -3039.8312   -2581.4669    1545.5838    12268.264 
   22550    324.71872     246.8165   -3060.5499   -2577.5554    1072.8816    12265.947 
   22600    323.42881    246.69791   -3056.5971   -2575.5213    1110.1911    12264.106 
   22650    321.10495    246.51403   -3050.4678   -2572.8485     1349.698    12262.709 
   22700    318.48538    246.32936   -3044.3121   -2570.5892    1601.5736    12261.904 
   22750    323.63938    246.40779   -3046.9263   -2565.5372    1484.5168     12261.79 
   22800    328.88385    246.61811   -3053.9371   -2564.7473    1326.8626    12262.319 
   22850    332.73836    246.70973    -3056.991   -2562.0679    1339.6501    12263.397 
   22900    330.53034    246.54838   -3051.6127   -2559.9739    1418.6455    12265.042 
   22950    325.94438    246.37414   -3045.8048   -2560.9872    1467.4971     12267.29 
   23000     331.8083    246.62569   -3054.1898   -2560.6501    1159.0263    12270.115 
   23050    323.61363    251.27522   -3042.5074   -2561.1566    1434.6818    12273.419 
   23100    316.01254    251.02902   -3034.3006   -2564.2559    1677.6671    12277.314 
   23150    323.95176    251.26895   -3042.2983   -2560.4446    1441.3235    12281.913 
   23200    316.91409    250.96575   -3032.1915   -2560.8058    1622.4346    12287.143 
   23250    315.07742    250.89633   -3029.8776   -2561.2239    1621.1871    12293.049 
   23300    319.20645    251.11982   -3037.3274   -2562.5319    1405.9452    12299.634 
   23350    317.01966    251.09071   -3036.3571   -2564.8144    1287.1964      12306.8 
   23400    317.14313    251.06794    -3035.598   -2563.8716    1061.4429    12314.455 
   23450    328.42882    251.36999   -3045.6663   -2557.1533    652.53877    12322.461 
   23500    324.81728    251.27765   -3042.5882   -2559.4471    737.32145    12330.631 
   23550    318.47257    251.07206   -3035.7354   -2562.0316    857.82058     12338.97 
   23600    322.13698    251.21571   -3040.5237   -2561.3694    614.39894     12347.53 
   23650    313.17226     250.9655   -3032.1833   -2566.3633    814.50647    12356.219 
   23700    304.29422    250.59472   -3019.8239   -2567.2093    1053.4218    12365.128 
   23750     321.5889    251.31496   -3043.8321    -2565.493    261.93582    12374.331 
   23800    319.14479    251.21374    -3040.458   -2565.7543    293.66912    12383.485 
   23850    301.58544    250.52328   -3017.4425    -2568.857    878.28762    12392.597 
   23900    308.16079    250.78805   -3026.2684   -2567.9026    477.84046    12401.895 
   23950    310.08982    250.92651   -3030.8838   -2569.6487    267.46293    12411.222 
   24000    303.93855    250.81061   -3027.0202   -2574.9347    285.74904    12420.463 
   24050    312.12242    251.09853   -3036.6175   -2572.3591   -176.82689    12429.593 
   24100    315.39919    251.24674   -3041.5581   -2572.4257   -412.33357    12438.382 
   24150    290.36114    250.35417   -3011.8058   -2579.9156    327.59862    12446.762 
   24200    302.41094    250.84952   -3028.3173   -2578.5039   -235.94222    12455.019 
   24250    310.47877    251.23052   -3041.0173   -2579.2037   -671.44727    12462.913 
   24300    295.48864    250.70667   -3023.5555   -2584.0386   -211.56661    12470.248 
   24350    299.85456    250.89526   -3029.8421   -2583.8311   -381.58478    12477.199 
   24400    304.28464    251.08046   -3036.0152   -2583.4149   -618.59709    12483.706 
   24450    297.53658    250.87061   -3029.0204   -2586.4573   -611.55399    12489.662 
   24500    296.15599    250.83124   -3027.7079   -2587.1983   -727.15697    12495.037 
   24550    293.79066    250.70556   -3023.5187   -2586.5274   -749.78364    12499.802 
   24600    292.16717     250.6168   -3020.5602   -2585.9836   -779.09776    12503.938 
   24650    294.70622    250.74421   -3024.8071    -2586.454   -903.98811    12507.417 
   24700    294.23546    250.74549   -3024.8496   -2587.1966   -806.64755    12510.217 
   24750    293.64822    250.62636   -3020.8786   -2584.0992    -682.5049     12512.39 
   24800     293.5967    250.64381   -3021.4603   -2584.7575   -687.56889    12513.993 
   24850    284.14019    250.30109   -3010.0363   -2587.3994   -383.55815    12515.045 
   24900    281.69938    250.22036   -3007.3455    -2588.339   -305.58098    12515.718 
   24950    302.88603    251.03316   -3034.4387   -2583.9187    -967.1452    12516.023 
   25000    294.13062    250.76896    -3025.632    -2588.135    -852.3528    12515.681 
   25050    294.33491    255.77957   -3025.9857   -2588.1848   -932.93974    12514.686 
   25100    288.00613    255.50536   -3016.8454   -2588.4582   -645.22549    12513.053 
   25150     282.9836    255.27062   -3009.0208   -2588.1041   -347.07101    12510.952 
   25200    288.52437    255.52512   -3017.5041    -2588.346   -425.75767    12508.512 
   25250    290.94386    255.62767   -3020.9223   -2588.1654   -511.24708    12505.732 
   25300    289.66826    255.53713   -3017.9044   -2587.0448    -479.5967     12502.57 
   25350    286.86278    255.50154    -3016.718   -2590.0313   -339.37274    12499.043 
   25400    282.43541    255.29185   -3009.7283    -2589.627   -86.188006    12495.244 
   25450    280.31487    255.24188   -3008.0626   -2591.1155   -16.909804    12491.293 
   25500    296.49882    255.79041   -3026.3471   -2585.3275   -530.95574    12487.222 
   25550    295.91358     255.6856   -3022.8535   -2582.7044   -462.16437    12482.807 
   25600    290.08042    255.56264   -3018.7546    -2587.282   -239.73413    12478.043 
   25650     301.7237    255.91385   -3030.4616   -2581.6704   -462.92803    12473.032 
   25700     289.0766    255.34543   -3011.5144   -2581.5348     74.75946    12467.738 
   25750    292.99819    255.45324   -3015.1079   -2579.2953   -13.918712    12462.371 
   25800    297.50583    255.68944   -3022.9814    -2580.464   -149.56769    12456.914 
   25850    293.95069    255.59519   -3019.8398   -2582.6104   -10.232404    12451.314 
   25900    300.65425    255.83945   -3027.9816   -2580.7812   -211.04797    12445.619 
   25950    306.96852    256.13743   -3037.9142   -2581.3218   -389.62502    12439.722 
   26000    292.96594    255.55253   -3018.4178   -2582.6532    225.53458    12433.584 
   26050    301.26172    250.85691   -3028.5636   -2580.4596    52.402121     12427.45 
   26100    304.23183    251.01477   -3033.8258    -2581.304   -15.180851    12421.273 
   26150    304.72934    250.97901   -3032.6337   -2579.3719    106.30328    12415.004 
   26200    295.26398     250.5997   -3019.9899   -2580.8071     516.1457    12408.744 
   26250     308.3536    251.06153   -3035.3842   -2576.7316     158.7133    12402.647 
   26300     310.7651    251.14294   -3038.0978   -2575.8583    170.55493    12396.576 
   26350    306.21303    250.93028   -3031.0094   -2575.5408     452.4166    12390.535 
   26400    300.69431    250.83301    -3027.767    -2580.507    681.19356    12384.654 
   26450    286.72265    250.43606   -3014.5353   -2588.0571    1117.0249    12379.084 
   26500    305.23624     251.0477   -3034.9235   -2580.9077    651.20382    12374.006 
   26550    300.75303    250.84156   -3028.0522   -2580.7048    999.98624    12369.256 
   26600     305.3922    250.92494   -3030.8312   -2576.5835    1016.5666    12364.933 
   26650    314.81433    251.27126   -3042.3754   -2574.1129    581.76597    12361.053 
   26700    324.77324    251.66167   -3055.3889   -2572.3133     173.7079    12357.378 
   26750     312.9534    251.25006   -3041.6686   -2576.1741    589.84998    12353.731 
   26800      310.669    251.19755   -3039.9183   -2577.8217    689.33694    12350.272 
   26850    303.85941    250.92667    -3030.889   -2578.9211     962.9933    12347.099 
   26900    298.10309    250.65197   -3021.7323   -2578.3266    1256.3723     12344.35 
   26950    305.93874    250.99103   -3033.0342   -2577.9735    1075.9362    12342.145 
   27000    303.70747    250.95167   -3031.7224   -2579.9806    1132.4248    12340.422 
   27050    310.63295    251.23982   -3041.3273   -2579.2844    864.86648    12339.167 
   27100    316.05527    251.44241   -3048.0803    -2577.972    666.97721    12338.259 
   27150    318.45628    251.62653   -3054.2177   -2580.5381    536.97994    12337.564 
   27200    301.98958     250.9148   -3030.4935   -2581.3069    1086.2452    12337.067 
   27250    298.23524    250.75732   -3025.2439   -2581.6416    1202.2682     12337.01 
   27300    312.52745    251.23898   -3041.2992   -2576.4383    777.53845    12337.426 
   27350    305.44679    250.97593   -3032.5312   -2578.2022     980.3861    12338.163 
   27400    308.60998     251.0852   -3036.1733   -2577.1394    859.34612    12339.262 
   27450    305.18343     251.0842   -3036.1399   -2582.2027    903.84996    12340.681 
   27500    299.18521    250.84989   -3028.3296   -2583.3143    1073.7963     12342.47 
   27550    316.29092    251.57485   -3052.4949   -2582.0361    484.20389    12344.639 
   27600    307.13138    251.20252   -3040.0842   -2583.2495    729.82411    12346.967 
   27650    309.72881    251.34731   -3044.9104   -2584.2123     603.1937    12349.487 
   27700    285.24878    250.54497   -3018.1657   -2593.8798    1242.3629    12352.243 
   27750    300.69573    251.12901   -3037.6338   -2590.3717    657.33093    12355.452 
   27800    307.51376    251.32964   -3044.3214    -2586.918    364.56475    12358.872 
   27850    327.54904     252.0489   -3068.2967   -2581.0923    -277.9722    12362.283 
   27900    311.39026    251.48212   -3049.4041   -2586.2347    244.47535    12365.425 
   27950    298.73591     251.1684   -3038.9468   -2594.5997    538.93999    12368.498 
   28000    301.86978    251.29627   -3043.2091   -2594.2007    250.89529    12371.671 
   28050    291.41816    255.88752   -3029.5839   -2596.1215    371.32359    12374.839 
   28100    293.29576    256.09001   -3036.3337   -2600.0784    227.45757    12378.041 
   28150    299.64158    256.34608   -3044.8694   -2599.1753    110.63344     12381.23 
   28200    298.17067    256.27143    -3042.381   -2598.8748    252.06566    12384.341 
   28250    290.95768    256.09383   -3036.4611   -2603.6836    413.98988    12387.438 
   28300    288.89245    256.09601   -3036.5337    -2606.828    303.69613    12390.612 
   28350    296.92566    256.38989   -3046.3298   -2604.6754   -37.415154    12393.792 
   28400    298.11604    256.41692   -3047.2308   -2603.8058   -106.59173    12396.815 
   28450    300.98603    256.64169   -3054.7231   -2607.0292   -306.45006    12399.605 
   28500    300.16113    256.73955   -3057.9849   -2611.5179   -398.39565    12402.076 
   28550    294.49037    256.59153   -3053.0509   -2615.0188   -299.61509    12404.193 
   28600    297.37548    256.77169   -3059.0564   -2616.7329   -403.98472    12405.972 
   28650    270.16411    255.71215   -3023.7382   -2621.8896    465.04934    12407.465 
   28700    284.86376    256.32047   -3044.0156   -2620.3024   -114.60027    12408.988 
   28750    292.26603    256.71576   -3057.1921   -2622.4685   -511.62652    12410.331 
   28800    279.76146    256.20824   -3040.2748   -2624.1508    -165.5227    12411.293 
   28850    276.72108    256.12902   -3037.6341   -2626.0325   -91.592989    12411.999 
   28900    281.54146    256.36575   -3045.5249   -2626.7533   -266.75586    12412.501 
   28950    283.81867    256.47135   -3049.0451   -2626.8864   -427.52539    12412.733 
   29000    301.90803    257.22012    -3074.004   -2624.9386   -1102.4448    12412.562 
   29050    289.16575    251.87463   -3062.4876   -2632.3755   -765.62957    12411.705 
   29100    283.65491    251.76909   -3058.9695   -2637.0543   -652.60945    12410.252 
   29150    292.98458     252.1583   -3071.9434    -2636.151   -1132.6095    12408.261 
   29200    276.38868     251.4871     -3049.57   -2638.4628   -670.37986     12405.57 
   29250    281.13572    251.67633   -3055.8776   -2637.7096    -787.3088    12402.342 
   29300    282.20329    251.69363   -3056.4544   -2636.6984   -782.32964    12398.574 
   29350    276.63205    251.59555   -3053.1849   -2641.7156   -587.43246    12394.268 
   29400    291.86219    252.11554    -3070.518   -2636.3951   -1001.7542    12389.493 
   29450    289.93272    252.07863   -3069.2877   -2638.0347    -962.5093    12384.065 
   29500    282.04798    251.81125   -3060.3749   -2640.8499   -681.36305    12378.008 
   29550    283.09873     251.8517   -3061.7232   -2640.6353   -683.06703    12371.452 
   29600    278.33997    251.72576   -3057.5252   -2643.5156   -430.64932    12364.434 
   29650    278.13058    251.67886   -3055.9621   -2642.2639   -327.01233    12357.093 
   29700    276.16687    251.66499   -3055.4996   -2644.7223    -166.3333    12349.487 
   29750    272.52329    251.57948   -3052.6494   -2647.2916    109.38398    12341.712 
   29800    272.84783    251.54671    -3051.557   -2645.7165    292.59082    12333.927 
   29850    296.70498     252.4919   -3083.0635   -2641.7373   -379.65384    12326.169 
   29900    298.18636     252.6151     -3087.17   -2643.6404   -380.39752    12318.154 
   29950    277.37515    251.73177   -3057.7256   -2645.1511    401.08512    12309.897 
   30000    292.12126    252.27023   -3075.6744   -2641.1662   -8.7345903    12301.704 
   30050    293.89642    252.35074   -3078.3579   -2641.2092   -38.493139    12293.455 
   30100     287.3554     252.0799     -3069.33   -2641.9106    247.96876    12285.125 
   30150    286.86337    252.10209   -3070.0695    -2643.382    413.99924    12276.854 
   30200    285.29429    252.06728   -3068.9092   -2644.5556    648.89331    12268.733 
   30250    284.45872    251.96056    -3065.352   -2642.2412    790.07975    12260.879 
   30300    292.37334     252.2451   -3074.8365   -2639.9533    481.54922    12253.348 
   30350     302.2755    252.65356    -3088.452   -2638.8401    183.03936    12245.992 
   30400    301.83637     252.6484   -3088.2801   -2639.3214    396.35256    12238.676 
   30450    285.36251    252.03383   -3067.7944   -2643.3393    1013.7932    12231.526 
   30500    295.03748    252.44334   -3081.4448   -2642.5989    746.57831    12224.778 
   30550    295.37641    252.41184   -3080.3947   -2641.0446    810.55203    12218.383 
   30600    309.28645    252.97848   -3099.2825   -2639.2424    426.12809    12212.307 
   30650    296.36031    252.47509   -3082.5028   -2641.6893    958.50174     12206.41 
   30700    289.89738    252.13564    -3071.188   -2639.9877    1267.3005    12200.917 
   30750    304.82085    252.72491   -3090.8304   -2637.4325    731.10731    12195.973 
   30800    304.93504    252.59797   -3086.5991   -2633.0313     760.3737     12191.36 
   30850    298.46078    252.39431   -3079.8104   -2635.8726    1050.3242    12187.046 
   30900    295.04185    252.33718   -3077.9059   -2639.0535    1245.3318    12183.171 
   30950    291.97059    252.17013   -3072.3375   -2638.0534     1380.834    12179.864 
   31000    303.21633     252.4649   -3082.1632   -2631.1519    1136.9643    12177.169 
   31050    285.77193    251.83728   -3061.2426   -2636.1785    1755.9793    12175.032 
   31100    295.23947    252.27287   -3075.7623   -2636.6159    1425.2027    12173.656 
   31150    304.84016    252.67778   -3089.2593   -2635.8327    1125.8255    12172.931 
   31200    306.73044    252.73904   -3091.3014   -2635.0631     1184.057    12172.679 
   31250    292.88693     252.1439   -3071.4632   -2635.8161    1627.9951    12172.961 
   31300    301.81662    252.50982   -3083.6607   -2634.7313    1246.8975    12173.935 
   31350    293.55881    252.25834   -3075.2779   -2638.6314    1446.9633    12175.484 
   31400    300.83444    252.43547   -3081.1822   -2633.7138    1272.7059     12177.64 
   31450    302.84135    252.59249   -3086.4163   -2635.9627    1132.8883    12180.346 
   31500    318.65537    253.16658   -3105.5526   -2631.5769    596.28767    12183.472 
   31550    308.91463    252.77042   -3092.3472   -2632.8601    965.37427    12186.812 
   31600    298.73334    252.27817   -3075.9392   -2631.5959    1360.3101    12190.517 
   31650    294.46489    252.10741   -3070.2469   -2632.2527    1391.8383     12194.79 
   31700    299.64279    252.29383   -3076.4611   -2630.7651    1171.6807     12199.64 
   31750    296.82943    252.23585   -3074.5282   -2633.0169     1246.518    12204.964 
   31800    287.77457    251.89664   -3063.2213   -2635.1784    1442.8102    12210.821 
   31850    308.30037    252.58941   -3086.3137   -2627.7403    689.38318    12217.237 
   31900     298.4577    252.12245   -3070.7482    -2626.815    938.93978    12223.927 
   31950    304.10618    252.38725    -3079.575   -2627.2401    717.43579    12230.906 
   32000    300.18076    252.34411   -3078.1368   -2631.6407    733.52134    12238.123 
   32050    298.62633    252.20445   -3073.4817   -2629.2977    672.93824    12245.551 
   32100    300.07484    252.29159   -3076.3862   -2630.0476    480.49377    12253.163 
   32150    302.85661    252.28541   -3076.1802    -2625.704    403.98934    12260.863 
   32200    298.22079    252.16368   -3072.1227   -2628.5419    504.70286    12268.617 
   32250    299.87341    252.25682   -3075.2272   -2629.1882    274.07514    12276.451 
   32300    308.14032    252.49912   -3083.3041   -2624.9687    1.5277907    12284.235 
   32350    298.88064    252.13967   -3071.3223     -2626.76    356.74741    12291.886 
   32400    300.22017    252.12323   -3070.7745   -2624.2197    296.81838    12299.525 
   32450    293.63615    251.80145   -3060.0484   -2623.2869    366.74167    12307.154 
   32500    282.55911    251.35857   -3045.2858   -2625.0005    565.95247    12314.811 
   32550    300.65762    252.07943   -3069.3144    -2622.109   -59.991441    12322.548 
   32600    294.27863     251.7586     -3058.62   -2620.9029    148.08608    12330.126 
   32650    287.06286    251.53744   -3051.2479   -2624.2637    312.77277    12337.592 
   32700    301.62801    252.14798   -3071.5994   -2622.9506   -313.30112    12344.999 
   32750    294.48492    251.81346   -3060.4488   -2622.4248   -190.67164    12352.111 
   32800    301.76085    252.01375    -3067.125   -2618.2786   -490.84021    12358.898 
   32850    292.06608     251.6407   -3054.6899   -2620.2638   -198.04088    12365.273 
   32900    279.78444    251.18287   -3039.4289   -2623.2707    185.17341    12371.358 
   32950    283.00187    251.20772   -3040.2575   -2619.3136    69.338923    12377.339 
   33000    286.38578    251.27262   -3042.4208   -2616.4437   -106.43372    12383.192 
   33050    299.97839    251.70733   -3056.9109   -2610.7158    -553.2318    12388.774 
   33100    290.70654    251.43452   -3047.8172   -2615.4133   -368.64186    12393.915 
   33150    278.59713    250.94892   -3031.6306   -2617.2385   -85.893096     12398.69 
   33200    296.47141    251.62673   -3054.2244   -2613.2457    -701.4548    12403.187 
   33250    300.90252    251.73053   -3057.6842   -2610.1145   -813.10161    12407.164 
   33300    294.34592    251.40348   -3046.7827   -2608.9654    -548.4748    12410.544 
   33350    303.64502    251.66444   -3055.4815   -2603.8325   -772.41542    12413.415 
   33400     291.1356     251.1888   -3039.6267   -2606.5845   -408.94294    12415.735 
   33450    301.82955    251.54048   -3051.3492   -2602.4006   -657.02759    12417.604 
   33500     291.8296    251.11829   -3037.2764    -2603.202   -181.56167    12418.985 
   33550    288.42007    250.97495   -3032.4985   -2603.4955   -33.467509    12420.096 
   33600    298.99587    251.30814   -3043.6047    -2598.871   -395.68193    12421.017 
   33650     302.0854    251.34907   -3044.9689   -2595.6397   -458.26827    12421.582 
   33700    286.79687    250.75282   -3025.0939   -2598.5053    102.78071    12421.778 
   33750    306.06413    251.33655   -3044.5518   -2589.3046   -495.70506    12421.819 
   33800    314.70823    251.60159   -3053.3865   -2585.2818   -764.59604    12421.448 
   33850    287.28907    250.56881   -3018.9604   -2591.6397    211.11744    12420.571 
   33900    301.13087    250.99088   -3033.0294   -2585.1201   -196.27156    12419.588 
   33950     302.0992    251.01177   -3033.7258   -2584.3761    -244.2796    12418.385 
   34000    304.00885    251.07035   -3035.6782   -2583.4881   -249.30434    12416.893 
   34050    300.12404    250.81229   -3027.0764   -2580.6646    46.754865    12415.141 
   34100    307.59982    251.06702   -3035.5675   -2578.0361   -58.994933    12413.253 
   34150    316.49921    251.36972   -3045.6573   -2574.8887   -357.81098    12411.179 
   34200    307.68524     251.0584   -3035.2801   -2577.6216   -93.024963    12408.782 
   34250     305.2838    251.06945   -3035.6485    -2581.562    59.535711    12406.183 
   34300     309.0888    251.19995   -3039.9985   -2580.2523     32.68227    12403.472 
   34350    298.49964    250.65763   -3021.9209   -2577.9253    443.81447    12400.662 
   34400    311.98727    251.12975   -3037.6584    -2573.601    16.073488    12397.913 
   34450    302.89522    250.74139   -3024.7131   -2574.1794    366.86796    12395.099 
   34500    297.22254    250.58928   -3019.6425   -2577.5465    590.56168     12392.34 
   34550    300.02388    250.66253   -3022.0844   -2575.8216    579.06891     12389.76 
   34600    306.58676    250.84919   -3028.3064   -2572.2818    451.75382     12387.36 
   34650    309.93069    251.00036   -3033.3452   -2572.3468    391.66149    12385.085 
   34700    305.38456    250.92637   -3030.8791   -2576.6427    530.46317    12382.891 
   34750     300.6675    250.76471   -3025.4903   -2578.2702    665.84214    12380.853 
   34800     306.0765     250.8634   -3028.7802   -2573.5146    549.27943    12379.022 
   34850    306.13755    250.87411    -3029.137   -2573.7806    489.35507    12377.366 
   34900    314.00335    251.20957   -3040.3191   -2573.2629    175.31137     12375.82 
   34950    309.76128    250.98894   -3032.9645   -2572.2181    404.72513    12374.253 
   35000    307.17615    250.83996   -3027.9986   -2571.0974    682.99575    12372.763 
   35050    297.97625    255.50559    -3016.853   -2573.6359    1098.2496    12371.532 
   35100    300.89171    255.66755   -3022.2516    -2574.698    1039.2973    12370.753 
   35150    305.31046    255.86727    -3028.909   -2574.7828    835.02936    12370.419 
   35200     310.2311    256.04792   -3034.9306   -2573.4853    633.30742    12370.407 
   35250    310.57016    256.03219   -3034.4063   -2572.4567    661.21795    12370.635 
   35300    324.08062    256.56074   -3052.0246   -2569.9793    232.07302    12371.056 
   35350    319.33676    256.38965   -3046.3217   -2571.3324    361.57872      12371.5 
   35400    316.08971    256.20452   -3040.1508   -2569.9913    471.72682    12372.004 
   35450    318.43205    256.34235   -3044.7448   -2571.1013    441.50029     12372.61 
   35500    295.54055    255.54927   -3018.3092    -2578.715    1160.7418    12373.369 
   35550      299.827    255.71499   -3023.8329    -2577.863    970.75022    12374.579 
   35600    292.50556     255.5176   -3017.2533   -2582.1734    1112.0913    12376.226 
   35650    287.89237    255.29192   -3009.7307   -2581.5126    1320.2993    12378.344 
   35700    297.34251    255.63432   -3021.1439   -2578.8694    1037.6069    12381.022 
   35750    304.41053    255.88197   -3029.3989   -2576.6113    716.71324    12384.148 
   35800    306.83479    255.86682    -3028.894   -2572.5005    554.16009    12387.551 
   35850    310.62264    256.15312   -3038.4372   -2576.4095    238.69068    12391.109 
   35900    309.05518    256.05973   -3035.3244   -2575.6283    213.75146    12394.681 
   35950     305.5619    255.94598   -3031.5327   -2577.0325    276.01956    12398.222 
   36000    306.87756     256.0007   -3033.3567   -2576.8996    210.75165    12401.764 
   36050    303.67242    260.98114   -3032.7046   -2581.0149        281.3    12405.294 
   36100    288.81556    260.47101   -3015.7004   -2586.1092    864.00424    12408.867 
   36150    284.63841    260.38528   -3012.8425   -2589.4645    934.61119    12412.772 
   36200    295.30188      260.805   -3026.8334   -2587.5942    478.98161    12417.052 
   36250    297.14054    260.83017   -3027.6724   -2585.6983      271.305     12421.49 
   36300    302.42678    261.02027    -3034.009   -2584.1721   -108.62298    12425.933 
   36350    286.99503     260.4343   -3014.4766   -2587.5933    327.77861    12430.238 
   36400    273.65789    259.85767   -2995.2558   -2588.2104    808.88088    12434.606 
   36450    280.80066    260.19577   -3006.5256   -2588.8559    491.24353    12439.253 
   36500    300.61555    261.05362   -3035.1208   -2587.9779   -297.81733    12444.021 
   36550    307.95123    261.32877   -3044.2923   -2586.2382    -609.5231    12448.521 
   36600    295.48037     260.7889   -3026.2967    -2586.792   -183.71719    12452.578 
   36650    285.59163    260.44449   -3014.8164   -2590.0205    94.939389    12456.393 
   36700    299.15336    260.90883   -3030.2942   -2585.3263   -386.91897    12460.089 
   36750    289.85352    260.62789   -3020.9296   -2589.7944   -178.41653     12463.49 
   36800    294.02863    260.68693   -3022.8975   -2585.5522   -320.66302    12466.641 
   36850    294.42033    260.64944    -3021.648   -2583.7201   -268.45691    12469.501 
   36900    295.58504    260.67688   -3022.5626   -2582.9023   -288.32696    12472.075 
   36950    295.96738    260.77967   -3025.9891   -2585.7601   -355.55856    12474.348 
   37000    283.63078    260.31391   -3010.4636   -2588.5843    18.088341    12476.332 
   37050    301.65797    261.04647   -3034.8823   -2586.1889   -630.34903    12478.141 
   37100    300.41601     261.0309   -3034.3635   -2587.5174   -687.34753    12479.511 
   37150    293.96568    260.81355   -3027.1182   -2589.8665   -519.12896    12480.373 
   37200    290.01123    260.62071   -3020.6904   -2589.3207   -346.95424     12480.82 
   37250     284.8939    260.31355   -3010.4518   -2586.6937   -145.46726    12480.957 
   37300    291.57136     260.5111   -3017.0366   -2583.3463    -376.3165     12480.86 
   37350    288.59942    260.39456   -3013.1519   -2583.8821   -290.57608    12480.454 
   37400    297.31104    260.74251   -3024.7502   -2582.5225   -518.12413     12479.73 
   37450    289.88943    260.43795   -3014.5985   -2583.4099   -201.08755    12478.623 
   37500    295.59833    260.63793   -3021.2642   -2581.5841   -398.25202    12477.251 
   37550     300.1327    260.80754    -3026.918   -2580.4933   -580.62586    12475.541 
   37600    290.33858    260.44606   -3014.8685   -2583.0119   -197.53492    12473.414 
   37650     286.3031     260.2838   -3009.4601    -2583.606   -27.270073    12471.054 
   37700    304.16904    260.94774   -3031.5914    -2579.163   -476.37814    12468.522 
   37750      285.223    260.14558   -3004.8526    -2580.605    362.05687    12465.702 
   37800    280.09605    259.83186   -2994.3954   -2577.7737    685.12373    12462.951 
   37850    298.46447    260.46327   -3015.4422   -2571.4989    111.72957    12460.421 
   37900    301.11504     260.4616   -3015.3866   -2567.5008    127.89857    12457.877 
   37950    295.32059    260.28526   -3009.5087   -2570.2417    391.26512    12455.294 
   38000    305.79542    260.65125   -3021.7083   -2566.8608    118.01736    12452.795 
   38050     302.4891    260.53262   -3017.7541   -2567.8245     331.6318    12450.271 
   38100    301.48471    260.41976   -3013.9921   -2565.5564    533.24612    12447.816 
   38150    314.85083    260.72433   -3024.1444   -2555.8277    206.61688     12445.53 
   38200    308.50557     260.4305   -3014.3499   -2555.4712    501.44939    12443.276 
   38250    300.11623    260.08224   -3002.7413   -2556.3412    880.34587    12441.196 
   38300    309.75429    260.43434   -3014.4781   -2553.7421    628.33343    12439.459 
   38350    308.09368    260.34733   -3011.5776   -2553.3116      647.929    12437.989 
   38400    314.77529    260.51617   -3017.2058   -2549.0014    493.48205    12436.741 
   38450    304.78777    260.09139   -3003.0463   -2549.6976    914.98994    12435.699 
   38500    307.47409     260.0107   -3000.3568   -2543.0124    899.82288    12435.035 
   38550    309.24454    260.16524    -3005.508   -2545.5302    717.63112    12434.759 
   38600    311.15093    260.14255   -3004.7516   -2541.9382    643.53152     12434.78 
   38650    314.69994    260.19065   -3006.3552   -2538.2629    631.56515    12435.026 
   38700    312.29528    260.11114   -3003.7046    -2539.189    811.24938    12435.505 
   38750    307.06539    259.87437   -2995.8123   -2539.0759    972.80079    12436.323 
   38800    319.63924    260.37239    -3012.413   -2536.9739    555.41118    12437.518 
   38850    306.24357    259.80216   -2993.4053   -2537.8912    1049.1653     12438.98 
   38900    317.29177     260.2473   -3008.2432   -2536.2957     711.7461    12440.848 
   38950    313.67338    260.07279   -3002.4264    -2535.861    826.61017    12443.028 
   39000     313.3061    260.04721   -3001.5737   -2535.5547    899.85889    12445.536 
   39050     314.6918    255.09939   -3003.3129   -2535.2327     807.7884    12448.409 
   39100    321.97207    255.41352    -3013.784   -2534.8749    419.14575    12451.567 
   39150    318.10162    255.26498   -3008.8328   -2535.6807    409.52265    12454.839 
   39200    312.04066    255.03721   -3001.2404   -2537.1036    584.55845    12458.203 
   39250    319.03819    255.26029   -3008.6764   -2534.1313    415.76419    12461.723 
   39300    314.11005    255.08551   -3002.8505   -2535.6356    567.35966    12465.361 
   39350    323.48256    255.44111   -3014.7035   -2533.5478    226.17015    12469.144 
   39400    320.25538    255.29452   -3009.8173   -2533.4617    244.51404    12472.948 
   39450    324.29017    255.41683   -3013.8944   -2531.5373      66.7337    12476.715 
   39500    315.55418    255.08631    -3002.877   -2533.5141    326.11238    12480.387 
   39550    316.85534    255.13673   -3004.5578   -2533.2595    355.05987    12484.066 
   39600    310.61466    255.05801   -3001.9338    -2539.918     471.8861    12487.817 
   39650    320.19495     255.5632   -3018.7733   -2542.5076    41.966233    12491.644 
   39700     304.6272    254.90001    -2996.667   -2543.5571    485.51069    12495.404 
   39750    303.16434    254.93424    -2997.808    -2546.874    353.50208    12499.267 
   39800    303.15474    254.99678   -2999.8926   -2548.9729    175.73693     12503.19 
   39850    293.71903    254.62294   -2987.4313   -2550.5464     429.4402     12507.09 
   39900    308.48414     255.1267   -3004.2233   -2545.3765   -59.709695    12511.041 
   39950    300.05994     254.8314   -2994.3801   -2548.0637    108.74064    12514.863 
   40000    290.21867     254.5166   -2983.8867   -2552.2085    340.27572     12518.62 
   40050    312.02989    260.38247   -3012.7489   -2548.6281   -457.80197    12522.377 
   40100    312.84334    260.49087   -3016.3624   -2551.0316   -580.73821    12525.775 
   40150    293.74273    259.80928   -2993.6426   -2556.7225   -65.957058    12528.747 
   40200    297.64597    259.93695   -2997.8983   -2555.1725    -234.1701    12531.506 
   40250    294.79423    260.03525    -3001.175    -2562.691    -253.9218    12534.018 
   40300    287.29824    259.77818   -2992.6058   -2565.2715   -78.169993    12536.282 
   40350    280.66401    259.51956   -2983.9854   -2566.5189    82.352922    12538.373 
   40400    279.03235    259.50102   -2983.3673   -2568.3279    54.156734    12540.377 
   40450    293.39845    259.99866   -2999.9554   -2563.5474   -484.99178    12542.255 
   40500    299.34181    260.23701   -3007.9002    -2562.652   -692.43398    12543.752 
   40550    297.69319    260.20893   -3006.9644   -2564.1683   -601.00729    12544.739 
   40600    297.87784    260.26686   -3008.8953   -2565.8246   -648.59044    12545.247 
   40650    294.63558    260.05371   -3001.7903   -2563.5422   -585.86504    12545.266 
   40700    295.89895    260.05277    -3001.759   -2561.6317   -614.31535     12544.82 
   40750      300.098    260.30334   -3010.1113   -2563.7383   -809.27993    12543.885 
   40800    293.81871    260.15219   -3005.0729   -2568.0398   -614.55313    12542.373 
   40850    291.08921     260.0379   -3001.2632   -2568.2901     -405.784    12540.394 
   40900    290.58578    259.97626   -2999.2086   -2566.9842   -230.52535    12538.069 
   40950    287.00584    259.89577   -2996.5258   -2569.6264   -62.959748    12535.499 
   41000    288.59273    259.94995   -2998.3316   -2569.0718   -153.05906    12532.759 
   41050    294.62922    265.21092   -3007.0306    -2568.792   -504.44958    12529.802 
   41100    303.06864    265.64208   -3021.4026    -2570.611    -834.0026    12526.442 
   41150    290.38372    265.13652   -3004.5505   -2572.6267   -249.31272    12522.563 
   41200    289.79546    265.10635   -3003.5449   -2572.4961   -97.134209    12518.406 
   41250    285.92578    264.99544   -2999.8479    -2574.555    1.3121074    12514.104 
   41300    290.31342    265.18457   -3006.1524   -2574.3332   -96.539422    12509.683 
   41350    292.65787    265.32239   -3010.7464     -2575.44   -70.704253    12505.125 
   41400    289.48889    265.19397   -3006.4658    -2575.873     35.05971    12500.447 
   41450    295.08028    265.36223   -3012.0744   -2573.1648   -142.79179    12495.663 
   41500    300.74269    265.63508   -3021.1694   -2573.8374   -315.12914    12490.713 
   41550    295.21729    265.45443   -3015.1477   -2576.0344     -83.5391    12485.502 
   41600    284.64685    265.05709    -3001.903   -2578.5124    250.20733    12480.153 
   41650    293.33943    265.36191   -3012.0636   -2575.7435   -15.903203    12474.819 
   41700    288.53038    265.04527    -3001.509    -2572.342    291.41285     12469.42 
   41750    294.24702    265.36252    -3012.084   -2574.4138    134.89967    12464.039 
   41800    291.83012    265.27405    -3009.135   -2575.0598    180.49038    12458.667 
   41850    305.60153    265.89038   -3029.6794   -2575.1203   -208.79172    12453.271 
   41900     291.0845    265.27019   -3009.0062   -2576.0401    504.37843    12447.725 
   41950    298.46293    265.48393    -3016.131     -2572.19    444.33666    12442.323 
   42000    309.05613    265.85519   -3028.5062   -2568.8086    135.08882    12437.058 
   42050     297.0917    260.37202   -3012.4006   -2570.4992    497.52534    12431.791 
   42100    309.80647    260.83235    -3027.745   -2566.9314    95.114723     12426.64 
   42150    310.95387     260.8994     -3029.98   -2567.4597     186.2109    12421.455 
   42200    312.44238     261.0431   -3034.7701   -2570.0357    207.71789    12416.257 
   42250    319.10271    261.23055   -3041.0185   -2566.3774    67.019388    12411.058 
   42300    308.71854    260.78109   -3026.0362   -2566.8408    503.07472     12405.82 
   42350    309.20417    260.82481   -3027.4937    -2567.576    557.93914    12400.716 
   42400    304.39819     260.6632   -3022.1067   -2569.3375    798.72952    12395.808 
   42450    301.42535    260.48851   -3016.2836   -2567.9362    1030.1378    12391.257 
   42500    318.48235    261.03383    -3034.461   -2560.7426    531.82037    12387.127 
   42550    320.36987    261.15406   -3038.4687   -2561.9428    436.80686    12383.191 
   42600    302.60985    260.48999    -3016.333   -2566.2238    1092.2458    12379.422 
   42650    297.83008    260.23435   -3007.8115   -2564.8119    1445.1312    12376.135 
   42700    293.67166    260.04797   -3001.5989   -2564.7845    1616.6783    12373.551 
   42750    308.43632    260.54028   -3018.0092   -2559.2336    1095.9989    12371.714 
   42800    303.06693    260.40903   -3013.6343   -2562.8452    1125.2811    12370.414 
   42850    305.05692     260.4755     -3015.85   -2562.1009    992.89168    12369.605 
   42900    313.53666    260.76816   -3025.6054   -2559.2434    749.24221    12369.223 
   42950    309.54992    260.54604   -3018.2014   -2557.7693     972.3249    12369.167 
   43000      317.563    260.78936    -3026.312   -2553.9611    891.68209      12369.5 
   43050    301.31577    260.14161   -3004.7204    -2556.536    1511.1149    12370.268 
   43100    334.04128    261.40775   -3046.9251    -2550.064    401.12489    12371.634 
   43150    322.54282    260.99974   -3033.3248   -2553.5668    718.55211    12373.191 
   43200    306.12934    260.38763   -3012.9209   -2557.5767    1271.1161    12375.024 
   43250    300.18122    260.10055   -3003.3516   -2556.8547    1445.0583    12377.429 
   43300    318.82339    260.72953   -3024.3176    -2550.092    829.68813    12380.479 
   43350    318.79001    260.76251   -3025.4171   -2551.2411    753.54101    12383.913 
   43400    324.02083    260.90046   -3030.0154    -2548.059     569.1512     12387.62 
   43450    324.33531    260.84793   -3028.2643   -2545.8401    583.00193    12391.544 
   43500     324.2425    260.77202   -3025.7339   -2543.4478    632.40136    12395.689 
   43550    315.05029    260.39562   -3013.1873   -2544.5738    911.34802    12400.068 
   43600    315.40421    260.46472   -3015.4905   -2546.3507    864.96767    12404.801 
   43650    298.69591    259.83705   -2994.5682   -2550.2807    1343.1059    12409.946 
   43700    301.72757    260.02553   -3000.8509    -2552.054    1201.0762    12415.679 
   43750    309.22996    260.28476   -3009.4921   -2549.5359    850.97447     12421.96 
   43800    312.29555    260.46841   -3015.6138   -2551.0979    601.16952    12428.596 
   43850    295.21043    259.89053   -2996.3508   -2557.2477    1026.4021     12435.49 
   43900    316.48645    260.72659   -3024.2198   -2553.4702     147.9102    12442.778 
   43950    324.29131    260.95994   -3031.9981   -2549.6393   -252.20259    12450.059 
   44000    299.63032    259.94857   -2998.2856   -2552.6082    552.43636    12457.135 
[...]
   89400    286.80859    260.19375   -3006.4583   -2579.8523    802.69557    12404.444 
   89450    298.25524    260.65482   -3021.8273   -2578.1952    347.60312     12402.77 
   89500    298.11897    260.75771    -3025.257   -2581.8276    256.53294    12401.185 
   89550    290.41686    260.41601    -3013.867    -2581.894    549.78521    12399.648 
   89600     314.6311     261.4145   -3047.1501   -2579.1601   -182.11114     12398.23 
   89650    306.30981    261.05773   -3035.2577    -2579.645    185.90284    12396.655 
   89700    294.33711     260.7178   -3023.9267   -2586.1225    546.46516    12395.057 
   89750     304.0006    261.13786   -3037.9287   -2585.7509    220.32563    12393.606 
   89800    296.65236    260.84268   -3028.0892   -2586.8413    512.87138    12392.198 
   89850    285.41337     260.3797   -3012.6566   -2588.1258    946.43132    12390.972 
   89900    297.69321    260.82264   -3027.4212   -2584.6252    524.95189    12390.099 
   89950    294.95521    260.67051   -3022.3504   -2583.6269    498.76609    12389.441 
   90000    315.53997     261.3411   -3044.7032   -2575.3614   -111.32766    12388.892 
   90050    309.88698    261.20078    -3040.026   -2579.0926    124.21142    12388.199 
   90100    296.20553    260.68314   -3022.7712   -2582.1879     559.6368    12387.468 
   90150    292.04033    260.54637   -3018.2124   -2583.8245    662.77038     12386.91 
   90200    280.01621    260.16672   -3005.5573   -2589.0544    1062.6988    12386.613 
   90250    288.58144    260.48282   -3016.0938   -2586.8508    820.86632    12386.745 
   90300    291.20342    260.68093   -3022.6978   -2589.5548    656.82479    12387.242 
   90350    293.57773    260.70635    -3023.545   -2586.8703    563.45281    12388.003 
   90400    296.68712    260.81815   -3027.2716    -2585.972    442.35214    12388.965 
   90450    303.38725    261.04475   -3034.8251   -2583.5596    240.21191    12390.067 
   90500    313.39308     261.4365   -3047.8835    -2581.735   -34.118042    12391.175 
   90550    294.92993    260.82284   -3027.4279    -2588.742    422.87277    12392.198 
   90600      314.435    261.41992   -3047.3306   -2579.6323   -281.14475    12393.253 
   90650    293.34028    260.66284   -3022.0945   -2585.7731    318.80581    12394.112 
   90700    307.01789    261.16095   -3038.6985   -2582.0326   -85.074367    12394.955 
   90750    297.47648    260.74689   -3024.8963   -2582.4225    319.11942    12395.695 
   90800    295.32081    260.65487   -3021.8291   -2582.5617    461.57931    12396.481 
   90850     303.8685    260.97724   -3032.5748   -2580.5934    186.31977    12397.394 
   90900    294.15008    260.58764   -3019.5879    -2582.062    510.23088     12398.33 
   90950    304.45017    261.05686   -3035.2288   -2582.3822    104.41173    12399.389 
   91000    288.62095    260.47334   -3015.7779   -2586.4761    685.32251    12400.467 
   91050    282.74608    255.34225   -3011.4084    -2590.845    870.26548    12401.784 
   91100    293.54483    255.76697   -3025.5657     -2588.94    397.41472    12403.434 
   91150    285.72845    255.41107   -3013.7023   -2588.7028    546.95455     12405.23 
   91200    305.57521    256.12111   -3037.3703   -2582.8504   -59.794164    12407.151 
   91250    288.83494     255.4816   -3016.0532   -2586.4331    447.23297    12409.004 
   91300    293.80193    255.63529   -3021.1765   -2584.1684     281.8982    12410.927 
   91350    303.76971    256.04036   -3034.6788   -2582.8444   -51.697011    12412.879 
   91400    303.09884    255.88667   -3029.5556   -2578.7191    118.69092    12414.711 
   91450     304.0233    255.93221   -3031.0737   -2578.8621    155.15019    12416.476 
   91500    305.62036    256.06259   -3035.4198   -2580.8327       64.947    12418.204 
   91550    303.13733     255.9554   -3031.8465   -2580.9527    80.502045    12419.847 
   91600    298.56616    255.79661   -3026.5537   -2582.4592    190.48361    12421.407 
   91650    295.58523    255.71356   -3023.7853   -2584.1247    251.43242    12422.948 
   91700    307.88644    256.07681   -3035.8937    -2577.936   -181.79579    12424.466 
   91750    301.04088    255.86529   -3028.8429   -2581.0674   -6.9193887    12425.798 
   91800    302.92919    255.88385   -3029.4618   -2578.8776   -10.643024    12426.976 
   91850    304.21044    255.95814    -3031.938    -2579.448   -2.8780553    12428.004 
   91900    293.57736    255.48463   -3016.1542   -2579.4801    458.53301     12428.93 
   91950    296.11662    255.54241   -3018.0803   -2577.6292    409.40747    12429.952 
   92000    297.39796    255.53913   -3017.9711   -2575.6141    307.89746    12431.076 
   92050    296.37173    255.51765   -3017.2551   -2576.4246    257.09679    12432.249 
   92100    291.83385    255.36514   -3012.1714   -2578.0907    354.62002    12433.473 
   92150    307.36704    255.96502   -3032.1672    -2574.982   -180.95908    12434.737 
   92200    317.74271    256.43185   -3047.7283   -2575.1101   -542.76189    12435.778 
   92250    299.21486    255.69706   -3023.2352   -2578.1758     190.9313    12436.447 
   92300    289.90858    255.32255   -3010.7516   -2579.5346    559.05914    12437.062 
   92350    296.89224    255.59173   -3019.7242   -2578.1195    332.07052    12437.847 
   92400    304.30902    255.83557   -3027.8525   -2575.2158    109.53809    12438.696 
   92450    297.13935    255.52764   -3017.5881   -2575.6158     323.4812    12439.513 
   92500    313.80474    256.09715   -3036.5717   -2569.8109   -180.38969    12440.318 
   92550    297.45589    255.48589   -3016.1963   -2573.7532    425.56688    12440.961 
   92600    297.97159    255.44866   -3014.9553   -2571.7451    502.29668    12441.683 
   92650     314.4314    256.08259   -3036.0864   -2568.3935    -34.87528    12442.527 
   92700    307.51087    255.80738   -3026.9128   -2569.5137    229.50833    12443.262 
   92750    285.68896    254.96842   -2998.9475   -2574.0068    958.38804    12444.026 
   92800    308.93684    255.71601   -3023.8669   -2564.3467    214.65383    12445.109 
   92850    308.95923    255.58729   -3019.5764   -2560.0229    223.43503    12446.238 
   92900    301.89314    255.29677   -3009.8922    -2560.849    535.88729    12447.373 
   92950    302.84963    255.37796   -3012.5987   -2562.1328    506.30302    12448.653 
   93000    308.49909    255.47476   -3015.8255   -2556.9565    331.17365    12450.082 
   93050    314.39062    255.69855    -3023.285   -2555.6528    205.83589    12451.572 
   93100     313.2042    255.61952   -3020.6507   -2554.7832    299.62824    12453.077 
   93150    313.66081    255.54099   -3018.0329   -2551.4862    286.47553    12454.625 
   93200    317.40837    255.73536   -3024.5119    -2552.391    134.75347     12456.17 
   93250    314.63286    255.61319   -3020.4395    -2552.447    240.56335    12457.677 
   93300    300.98477    255.12765   -3004.2551   -2556.5631    640.62167    12459.213 
   93350    304.60972    255.26352   -3008.7841   -2555.7003     441.9914    12460.938 
   93400    314.15159    255.49336   -3016.4453   -2549.1686    155.17573    12462.783 
   93450    296.09155    254.79561   -2993.1869   -2552.7732    819.25005    12464.658 
   93500    303.36558    255.04718   -3001.5725   -2550.3392    584.14441    12466.826 
   93550    314.38733    255.53078   -3017.6926   -2550.0653    207.24995    12469.186 
   93600    297.20017    254.83908    -2994.636   -2552.5733    809.17393    12471.599 
   93650    311.04923    255.27364   -3009.1213   -2546.4592    399.97832    12474.288 
   93700    310.02477    255.15172   -3005.0574   -2543.9191      397.277     12477.12 
   93750    311.46371    255.21954    -3007.318   -2544.0393    220.34414    12480.034 
   93800     316.3072    255.37822   -3012.6073   -2542.1243    2.5374831    12482.948 
   93850    309.71519    255.17586   -3005.8621   -2545.1842    281.12688    12485.765 
   93900    298.96235    254.70016   -2990.0052   -2545.3214    709.19936    12488.646 
   93950    308.51765    255.07675   -3002.5582   -2543.6616    348.37479    12491.778 
   94000    309.50169    255.14393   -3004.7976   -2544.4373    238.45815    12495.006 
   94050    293.89257    254.52501   -2984.1671   -2547.0242    726.16351    12498.278 
   94100    298.93112    254.67646   -2989.2153   -2544.5779    556.51844    12501.815 
   94150    295.09527     254.5647   -2985.4898    -2546.558    610.90108    12505.586 
   94200    293.13373     254.4957     -2983.19   -2547.1758    634.05602     12509.59 
   94250    299.76797    254.76533   -2992.1778   -2546.2956     391.3892    12513.846 
   94300    304.05427    255.00764   -3000.2548   -2547.9971    159.35335     12518.23 
   94350      305.831    254.92887   -2997.6291   -2542.7286    110.83046    12522.618 
   94400    305.58724    254.84081   -2994.6938    -2540.156    135.32387    12526.959 
   94450    310.74716     255.0048   -3000.1599    -2537.947   -115.61966    12531.259 
   94500     311.4767    255.01673   -3000.5576   -2537.2596   -219.61124     12535.39 
   94550    307.01701      254.818   -2993.9335   -2537.2689   -77.161412      12539.3 
   94600    304.43129    254.69904   -2989.9681   -2537.1496     77.66683    12543.069 
   94650    297.53096    254.40529   -2980.1764   -2537.6217    377.14488    12546.784 
   94700    313.13771    255.01413   -3000.4711   -2534.7025   -135.08851    12550.546 
   94750    313.83967     255.0111   -3000.3701   -2533.5573   -155.33749    12554.138 
   94800    289.77682    254.06928    -2968.976   -2537.9549    615.60343    12557.588 
   94850    308.14994    254.75584   -2991.8615   -2533.5118    59.877588    12561.193 
   94900    300.45255    254.42683   -2980.8942   -2533.9938    292.98267    12564.771 
   94950    294.68604    254.25076   -2975.0252    -2536.702    316.20569    12568.399 
   95000    311.34192    254.82147   -2994.0491   -2530.9516   -371.10878    12572.061 
   95050    314.32138    259.89586   -2996.5288   -2528.9996   -503.58128    12575.437 
   95100    304.94806     259.5655   -2985.5165   -2531.9294   -130.93851    12578.454 
   95150    308.94421    259.58688   -2986.2294   -2526.6983   -127.70692    12581.251 
   95200    318.09301    259.91455   -2997.1516   -2524.0123   -484.39221    12583.843 
   95250     321.3776    260.04924   -3001.6412   -2523.6164   -560.25271    12586.058 
   95300    311.00238    259.59644   -2986.5481   -2523.9556   -80.655835    12587.886 
   95350    313.37599    259.64216    -2988.072    -2521.949   -153.60045    12589.513 
   95400    301.98562     259.1746   -2972.4868   -2523.3061    84.117468    12590.958 
   95450    305.74923    259.38698   -2979.5659    -2524.787   -164.38662    12592.297 
   95500    306.09025    259.48321   -2982.7736   -2527.4876   -312.42765    12593.443 
   95550     313.6976    259.83728    -2994.576   -2527.9746   -588.69317    12594.279 
   95600    307.39272    259.54985   -2984.9949   -2527.7715   -266.51011    12594.666 
   95650    302.08283    259.31831    -2977.277   -2527.9517   -28.774391    12594.772 
   95700    305.77663    259.42289   -2980.7632   -2525.9436   -173.63343     12594.72 
   95750    300.33021    259.24641   -2974.8804    -2528.162    8.7395697    12594.469 
   95800    305.32874    259.42974   -2980.9912   -2526.8378   -125.08624    12594.072 
   95850    305.47845     259.3599   -2978.6632   -2524.2872   -96.766949     12593.48 
   95900    309.61608    259.53194   -2984.3979   -2523.8674   -196.67527    12592.698 
   95950     304.1191    259.27084   -2975.6945   -2523.3404    117.62546    12591.684 
   96000    302.75893    259.27266   -2975.7552   -2525.4242    157.66596    12590.583 
   96050      315.799    259.71703   -2990.5676   -2520.8406   -246.10818    12589.428 
   96100    311.48546    259.58184   -2986.0614   -2522.7503   -89.300163    12588.014 
   96150    293.87255    258.97522   -2965.8406   -2528.7275    491.27423    12586.428 
   96200    304.07668    259.40941   -2980.3135   -2528.0225    239.77202    12584.939 
   96250    312.01475    259.74241   -2991.4138   -2527.3155   -33.891448    12583.464 
   96300    306.66651    259.43132   -2981.0439   -2524.9007    92.313569    12581.854 
   96350    313.57932    259.63926   -2987.9754     -2521.55   -200.34336    12580.135 
   96400    317.40927    259.85929   -2995.3097   -2523.1874    -348.0526    12578.162 
   96450    304.16266    259.41153   -2980.3842   -2527.9653    106.39615    12575.865 
   96500    298.27852    259.21778   -2973.9261   -2530.2594     269.5324    12573.468 
   96550    295.53958    259.11439   -2970.4797    -2530.887    329.36495    12571.079 
   96600     299.8198    259.31362   -2977.1206   -2531.1614    92.375045     12568.72 
   96650    310.89848    259.78672   -2992.8907   -2530.4528   -353.51804    12566.238 
   96700    314.56398    259.94635   -2998.2115   -2530.3215   -440.47888    12563.412 
   96750    298.20006    259.43007   -2981.0024   -2537.4524    172.43499    12560.226 
   96800    288.90422    259.14239   -2971.4131     -2541.69    575.60703    12556.961 
   96850     286.5605    259.09752   -2969.9173   -2543.6803     657.6967    12553.867 
   96900    286.54188    259.18416   -2972.8054   -2546.5961     547.4622    12550.992 
   96950    291.87375     259.4134   -2980.4466   -2546.3065    271.27308    12548.276 
   97000    301.43167    259.78287   -2992.7624   -2544.4056    2.4971278    12545.564 
   97050    285.32522    259.29967   -2976.6557   -2552.2561    534.35904     12542.76 
   97100    285.30371    259.22934   -2974.3114   -2549.9437    585.40972    12540.076 
   97150    282.94468    259.14195   -2971.3985   -2550.5397     664.4082    12537.585 
   97200    292.77071    259.52631   -2984.2102   -2548.7359    413.94282    12535.315 
   97250    308.43137    260.12234   -3004.0782   -2545.3099   -96.774506    12533.128 
   97300    302.42902    259.99353   -2999.7844   -2549.9441   -39.122715    12530.784 
   97350    297.25235    259.82656   -2994.2187   -2552.0783     63.66392    12528.274 
   97400    293.13009    259.65238   -2988.4127   -2552.4039    237.47554    12525.662 
   97450    289.16165    259.48318   -2982.7725   -2552.6665    449.40137    12523.049 
   97500    293.89841    259.74724   -2991.5747   -2554.4231    337.22148    12520.524 
   97550    300.22868    259.97058   -2999.0193   -2552.4519    127.56708    12518.042 
   97600    306.90595    260.29573   -3009.8577   -2553.3583   -200.37803    12515.483 
   97650    305.37494    260.23894   -3007.9647   -2553.7426   -225.66355    12512.675 
   97700    302.96388    260.15322   -3005.1072   -2554.4714   -67.523241    12509.588 
   97750    298.21552    260.02863   -3000.9544   -2557.3814    106.96612    12506.326 
   97800    294.92518    260.03136   -3001.0453   -2562.3664    107.61421     12502.97 
   97850    295.00664    260.02179   -3000.7264   -2561.9263    77.371668    12499.526 
   97900    308.74255    260.60928   -3020.3092    -2561.078   -423.00584    12495.939 
   97950    308.19745    260.45407   -3015.1355   -2556.7152   -316.65122    12491.988 
   98000    292.87859    259.93622    -2997.874   -2562.2393    348.33296    12487.716 
   98050    291.26475    259.95815    -2998.605   -2565.3707    516.00116    12483.456 
   98100    294.02447    260.08495   -3002.8318   -2565.4927    330.52648    12479.329 
   98150    302.66626    260.46469   -3015.4896   -2565.2965    22.056967    12475.212 
   98200    288.85503    260.05317   -3001.7724   -2572.1225    487.74235    12471.008 
   98250    306.95973    260.76693   -3025.5644    -2568.985   -144.68068    12466.852 
   98300     301.1592    260.45518   -3015.1726   -2567.2211  -0.19214399      12462.5 
   98350    294.90222    260.33376   -3011.1252   -2572.4805     128.6353    12457.975 
   98400    299.90807     260.6175   -3020.5834   -2574.4929   -56.660753    12453.335 
   98450    291.34143    260.33103   -3011.0343    -2577.686    206.36029    12448.535 
   98500    310.39255    261.08827   -3036.2757   -2574.5903   -391.10347    12443.632 
   98550    301.63403    260.82131    -3027.377   -2578.7192   -97.204692    12438.406 
   98600    292.05423    260.47011   -3015.6703   -2581.2618    259.13371    12432.952 
   98650     289.6163    260.46406   -3015.4686   -2584.6863    345.04098     12427.47 
   98700    301.47009    260.92513   -3030.8378   -2582.4238    32.967655    12421.993 
   98750    300.70522    260.95749   -3031.9164   -2584.6402    128.98998    12416.389 
   98800    292.64091    260.68268    -3022.756   -2587.4748     472.3437    12410.686 
   98850     292.5888    260.72748   -3024.2492   -2589.0456      482.399    12405.066 
   98900    300.77128    261.00557   -3033.5191   -2586.1447    242.25913    12399.545 
   98950    290.81413    260.66246    -3022.082    -2589.518    612.79768    12394.023 
   99000    294.84917    260.86744   -3028.9148    -2590.349    493.44109    12388.653 
   99050     313.0792    261.58799    -3052.933   -2587.2514   -106.81089    12383.355 
   99100    297.86316    260.96642   -3032.2141   -2589.1652    429.09449    12377.912 
   99150    314.17877    261.73354   -3057.7848   -2590.4677   -67.406205    12372.466 
   99200    288.27998    260.75823   -3025.2744   -2596.4798    772.11426    12366.916 
   99250    291.02832    261.01458   -3033.8192   -2600.9367    666.92825    12361.566 
   99300    287.40603    260.89589   -3029.8631   -2602.3684    830.29495    12356.455 
   99350    288.12976    260.89606   -3029.8687   -2601.2975    812.42501     12351.64 
   99400    295.24489     261.2384   -3041.2799   -2602.1255    554.05473    12347.102 
   99450    288.27902    260.97304   -3032.4345   -2603.6413    903.00724     12342.77 
   99500    294.84877    261.23563   -3041.1878   -2602.6226    802.16689    12338.767 
   99550    297.81044    261.42946   -3047.6487   -2604.6782    629.43069    12335.055 
   99600    301.92845    261.59751   -3053.2502   -2604.1545    475.83792    12331.552 
   99650    289.81472    261.06763   -3035.5875   -2604.5101    924.66041     12328.21 
   99700    298.72731      261.436   -3047.8665   -2603.5323    663.51311     12325.18 
   99750     288.1858    261.09578   -3036.5259   -2607.8714    1010.8978    12322.425 
   99800    289.18411    261.15421   -3038.4737   -2608.3342    967.54637    12320.069 
   99850    296.28098    261.52052   -3050.6841   -2609.9886    593.86607    12318.099 
   99900    301.80324     261.6445   -3054.8168   -2605.9074    462.80686    12316.342 
   99950     296.3083    261.54206   -3051.4019   -2610.6658    747.39342    12314.737 
  100000    299.03463    261.57761   -3052.5872   -2607.7958    671.94204    12313.394 
Loop time of 26.7196 on 1 procs for 100000 steps with 500 atoms

Performance: 323.358 ns/day, 0.074 hours/ns, 3742.570 timesteps/s
99.7% CPU use with 1 MPI tasks x 1 OpenMP threads

MPI task timing breakdown:
Section |  min time  |  avg time  |  max time  |%varavg| %total
---------------------------------------------------------------
Pair    | 21.659     | 21.659     | 21.659     |   0.0 | 81.06
Bond    | 0.0075333  | 0.0075333  | 0.0075333  |   0.0 |  0.03
Neigh   | 0.55426    | 0.55426    | 0.55426    |   0.0 |  2.07
Comm    | 0.77119    | 0.77119    | 0.77119    |   0.0 |  2.89
Output  | 0.01857    | 0.01857    | 0.01857    |   0.0 |  0.07
Modify  | 2.7641     | 2.7641     | 2.7641     |   0.0 | 10.34
Other   |            | 0.9451     |            |       |  3.54

Nlocal:    500 ave 500 max 500 min
Histogram: 1 0 0 0 0 0 0 0 0 0
Nghost:    1576 ave 1576 max 1576 min
Histogram: 1 0 0 0 0 0 0 0 0 0
Neighs:    14409 ave 14409 max 14409 min
Histogram: 1 0 0 0 0 0 0 0 0 0

Total # of neighbors = 14409
Ave neighs/atom = 28.818
Ave special neighs/atom = 0
Neighbor list builds = 665
Dangerous builds = 0

write_data      ${walker}/final_restart_file
write_data      13/final_restart_file

quit
