LAMMPS (19 May 2017)
Processor partition = 13
  using 1 OpenMP thread(s) per MPI task
# gREM variables
variable        lambda world 1000 1005 1010 1015 1020 1025 1030 1035 1040 1045 1050 1055 1060 1065 1070 1075
variable        walker world 0 1 2 3 4 5 6 7 8 9 10 11 12 13 14 15
variable        replica world 1 0 3 9 12 2 5 13 10 4 7 14 6 15 8 11

variable        T0 equal 300.0
variable        press equal 0.0

units           real
atom_style      full
pair_style      lj/cut 5.0

# LJ particles
read_data       ${walker}/restart_file
read_data       13/restart_file
  orthogonal box = (0.954061 0.954061 0.954061) to (24.0459 24.0459 24.0459)
  1 by 1 by 1 MPI processor grid
  reading atoms ...
  500 atoms
  reading velocities ...
  500 velocities
  0 = max # of 1-2 neighbors
  0 = max # of 1-3 neighbors
  0 = max # of 1-4 neighbors
  1 = max # of special neighbors

#dump            dump all xyz 1000 ${walker}/dump.xyz

fix             fxnpt all npt temp ${T0} ${T0} 1000.0 iso ${press} ${press} 10000.0
fix             fxnpt all npt temp 300 ${T0} 1000.0 iso ${press} ${press} 10000.0
fix             fxnpt all npt temp 300 300 1000.0 iso ${press} ${press} 10000.0
fix             fxnpt all npt temp 300 300 1000.0 iso 0 ${press} 10000.0
fix             fxnpt all npt temp 300 300 1000.0 iso 0 0 10000.0
fix             fxgREM all grem ${lambda} -.03 -30000 fxnpt
fix             fxgREM all grem 1065 -.03 -30000 fxnpt
thermo_modify   press fxgREM_press

thermo          50
thermo_style    custom step temp f_fxgREM pe etotal press vol
WARNING: New thermo_style command, previous thermo_modify settings will be lost (../output.cpp:705)
timestep        1.0

temper/grem     100000 1000 ${lambda} fxgREM fxnpt 10294 98392 ${walker}
temper/grem     100000 1000 1065 fxgREM fxnpt 10294 98392 ${walker}
temper/grem     100000 1000 1065 fxgREM fxnpt 10294 98392 13
Neighbor list info ...
  update every 1 steps, delay 10 steps, check yes
  max neighbors/atom: 2000, page size: 100000
  master list distance cutoff = 7
  ghost atom cutoff = 7
  binsize = 3.5, bins = 7 7 7
  1 neighbor lists, perpetual/occasional/extra = 1 0 0
  (1) pair lj/cut, perpetual
      attributes: half, newton on
      pair build: half/bin/newton
      stencil: half/bin/3d/newton
      bin: standard
Per MPI rank memory allocation (min/avg/max) = 5.722 | 5.722 | 5.722 Mbytes
Step Temp f_fxgREM PotEng TotEng Press Volume 
       0    299.03463    256.57761   -3052.5872   -2607.7958    671.94204    12313.394 
      50    302.75223      256.708   -3056.9332   -2606.6122    444.42756     12313.48 
     100    295.86942    256.46943   -3048.9811   -2608.8978    660.90987    12313.703 
     150    292.91591     256.4474   -3048.2465   -2612.5563    730.65009    12314.147 
     200    299.06005    256.65322   -3055.1075   -2610.2783    550.77151     12314.85 
     250    303.02387    256.80341   -3060.1137   -2609.3886     451.7691    12315.729 
     300    292.04959    256.37546   -3045.8487   -2611.4471    798.79019    12316.752 
     350    296.83422    256.55197   -3051.7323   -2610.2139    617.96859     12318.06 
     400     305.1194    256.92837   -3064.2791   -2610.4371    259.76141    12319.575 
     450    308.63557    257.06424   -3068.8078   -2609.7358    97.687412    12321.109 
     500    297.96142    256.59235   -3053.0782   -2609.8832    573.67381    12322.603 
     550    295.85748    256.53492    -3051.164   -2611.0984    651.43852    12324.258 
     600    308.02784    256.97435   -3065.8116   -2607.6436    133.63908    12326.109 
     650    299.31779    256.61744   -3053.9145    -2608.702    410.04317    12327.956 
     700    283.10476    255.99858   -3033.2859    -2612.189    1000.5354    12329.923 
     750    287.75295    256.10981   -3036.9936   -2608.9829    889.53554    12332.262 
     800    295.17866     256.3164   -3043.8799   -2604.8241    636.04935    12334.974 
     850     304.4977    256.82243   -3060.7475   -2607.8303    217.22249     12337.91 
     900    290.06018     256.2563   -3041.8767   -2610.4342    726.00476    12340.877 
     950    297.55273    256.49856   -3049.9519   -2607.3648    510.97986    12344.071 
    1000    310.89654    257.01725   -3067.2418   -2604.8068     94.04086    12347.418 
    1050    291.70727    256.24013   -3041.3376   -2607.4451    753.51377    12350.751 
    1100    291.73772    256.26289   -3042.0962   -2608.1585    723.55281     12354.33 
    1150    301.58232    256.63349   -3054.4496   -2605.8688    311.22402    12358.161 
    1200    304.38186    256.72166   -3057.3887   -2604.6437    145.69136     12362.06 
    1250    310.51923    256.88534   -3062.8447   -2600.9708   -99.655535    12365.899 
    1300    287.27965    256.06301   -3035.4338   -2608.1271    596.76465    12369.607 
    1350    290.93456    256.13505   -3037.8351   -2605.0919    420.78493    12373.466 
    1400    300.11196    256.45606   -3048.5353   -2602.1415   -1.1951052    12377.422 
    1450    293.23974     256.2542   -3041.8066   -2605.6347    161.75541    12381.285 
    1500    296.22121    256.32213   -3044.0711   -2603.4645    107.50416    12385.101 
    1550       292.02    256.12114   -3037.3714   -2603.0138    252.64476    12388.865 
    1600     288.8127    255.81644   -3027.2146   -2597.6276    395.14181    12392.639 
    1650     294.8797    255.95485   -3031.8283   -2593.2171    163.88358    12396.492 
    1700    295.76439    255.88639   -3029.5463   -2589.6192    114.89325    12400.341 
    1750    296.21357     255.9156   -3030.5201   -2589.9248    83.458264    12404.113 
    1800    299.37902    256.00041    -3033.347   -2588.0434   -104.65786    12407.791 
    1850    308.46784     256.2744     -3042.48   -2583.6575   -409.47688    12411.261 
    1900    308.98547     256.2121   -3040.4033   -2580.8108   -361.11613    12414.396 
    1950    320.54238    256.59946   -3053.3153   -2576.5328   -628.33067    12417.166 
    2000    307.95146    256.05618    -3035.206   -2577.1515   -132.69856    12419.486 
    2050    294.44885       255.53   -3017.6667   -2579.6964    365.89778    12421.595 
    2100    288.82272    255.28786   -3009.5953   -2579.9934    599.97117    12423.774 
    2150    295.31761     255.5036   -3016.7866   -2577.5241    417.08905    12426.136 
    2200    290.90366    255.17655   -3005.8849   -2573.1877     581.3865    12428.628 
    2250    312.45632    255.98446   -3032.8153   -2568.0602   -130.16308    12431.254 
    2300    322.44577     256.3272     -3044.24   -2564.6264   -333.75676    12433.693 
    2350     297.8936    255.33934   -3011.3112    -2568.217    609.75923    12435.875 
    2400    307.58697    255.64958   -3021.6528   -2564.1405    342.37948    12438.186 
    2450    312.45182    255.75441   -3025.1469   -2560.3985    202.29883    12440.575 
    2500    297.82558    255.08687   -3002.8956   -2559.9026    693.64579    12442.982 
    2550    299.49099    255.18059   -3006.0197   -2560.5496    535.63563    12445.604 
    2600    307.43659    255.40999   -3013.6663   -2556.3777    269.91872    12448.387 
    2650    303.56124    255.26126   -3008.7085   -2557.1842    443.95437    12451.221 
    2700    312.23618    255.53169    -3017.723   -2553.2953    196.67737    12454.149 
    2750    311.19133    255.40894   -3013.6313   -2550.7578    248.71037    12457.072 
    2800    300.45627    254.91871   -2997.2905   -2550.3846     661.4322    12460.026 
    2850    301.21523    254.90733    -2996.911   -2548.8762     648.6326    12463.186 
    2900    306.57851    255.14642   -3004.8806   -2548.8683    356.47188    12466.563 
    2950    313.78456    255.42966   -3014.3219   -2547.5911    51.193455    12469.993 
    3000    299.43536    254.88232   -2996.0772   -2550.6898     485.4171    12473.363 
    3050    307.57825    255.15904   -3005.3012   -2547.8019    224.25767    12476.822 
    3100    301.88501    254.90433   -2996.8109   -2547.7799    391.18428    12480.294 
    3150    299.12741    254.75938   -2991.9793   -2547.0499    392.35783    12483.844 
    3200    316.85154    255.41075   -3013.6918   -2542.3991   -245.96749    12487.441 
    3250    309.22443    255.09485   -3003.1617   -2543.2138    37.253062    12490.831 
    3300     309.2487    255.08024   -3002.6746   -2542.6906    36.478043     12494.08 
    3350     320.6826    255.44188   -3014.7292   -2537.7382   -333.67811    12497.195 
    3400    320.91289    255.62596   -3020.8653   -2543.5317   -385.46772    12499.995 
    3450    302.97658    255.02236   -3000.7455   -2550.0908    187.01966    12502.467 
    3500     305.7186    255.11051   -3003.6837   -2548.9505    79.921056    12504.869 
    3550    312.77833    255.30058   -3010.0195   -2544.7854   -102.93699    12507.165 
    3600    308.00911    255.11485   -3003.8283   -2545.6881    113.02328     12509.29 
    3650     304.4445    254.93338   -2997.7795   -2544.9413    275.54416     12511.32 
    3700    306.80485    255.00136   -3000.0455   -2543.6965    129.13747    12513.349 
    3750    303.76209     254.8377   -2994.5901    -2542.767    184.05317    12515.335 
    3800    302.19468    254.87281   -2995.7604   -2546.2687    195.51552    12517.283 
    3850    318.24335    255.58506    -3019.502   -2546.1391    -414.0864    12519.176 
    3900    319.78274    255.61191   -3020.3971   -2544.7445    -517.1873    12520.714 
    3950    307.79123    255.11249   -3003.7497   -2545.9336   -176.65441    12521.833 
    4000    301.02875    254.86443   -2995.4811   -2547.7236    26.839022    12522.702 
    4050    298.29362    254.81281   -2993.7603   -2550.0711    180.81006    12523.444 
    4100    300.87757    254.89143    -2996.381   -2548.8484    77.208381    12524.138 
    4150    315.08497    255.49948   -3016.6492   -2547.9842   -452.33437    12524.695 
    4200    305.88772     255.1781   -3005.9367   -2550.9519   -160.27473    12524.901 
    4250    307.67764    255.23204   -3007.7345   -2550.0873   -186.80921    12524.841 
    4300    298.57558    254.93275   -2997.7584   -2553.6498    61.006821    12524.569 
    4350    311.01121    255.38833   -3012.9444   -2550.3388    -340.2528    12524.146 
    4400    298.90385     254.9891   -2999.6367   -2555.0398    44.190919    12523.447 
    4450    307.45315    255.24021   -3008.0069   -2550.6936    -173.1379    12522.584 
    4500    311.57003    255.48766   -3016.2553   -2552.8185   -347.31671    12521.473 
    4550    310.50776    255.52911   -3017.6369   -2555.7801   -330.60487    12520.025 
    4600    304.36505    255.35622    -3011.874    -2559.154   -157.02604    12518.241 
    4650     285.0427    254.69423   -2989.8075   -2565.8281    431.82066    12516.256 
    4700    308.94519    255.52517   -3017.5058   -2557.9732   -318.38362      12514.3 
    4750    307.55303    255.50672   -3016.8907   -2559.4289   -347.96878    12512.078 
    4800    294.27071    255.11633   -3003.8776   -2566.1722    93.292553    12509.526 
    4850    291.43743    254.95497    -2998.499   -2565.0079    176.14694    12506.873 
    4900    309.43961    255.64871   -3021.6236   -2561.3556   -475.57945    12504.146 
    4950    306.15193    255.55342   -3018.4474   -2563.0696   -331.60231    12501.047 
    5000    293.68135     255.2037   -3006.7901   -2569.9614    132.28609    12497.617 
    5050    293.17872     255.2083   -3006.9432   -2570.8621    139.56535    12494.106 
    5100    305.34088    255.75837   -3025.2791   -2571.1077   -307.03529    12490.509 
    5150    299.72106    255.52784   -3017.5946   -2571.7822   -194.10898    12486.642 
    5200    316.45006     256.2138   -3040.4601   -2569.7647   -726.90853    12482.455 
    5250     302.2415    255.78069    -3026.023   -2576.4616   -249.25276    12477.764 
    5300    294.81777    255.57299   -3019.0997   -2580.5807    22.510772    12472.775 
    5350    298.31137    255.73323   -3024.4411   -2580.7255   -110.84167    12467.642 
    5400    296.68372    255.67492   -3022.4974   -2581.2028   -62.258177    12462.324 
    5450    301.12988    255.77747   -3025.9157   -2578.0078   -150.44246    12456.811 
    5500    295.92587      255.761   -3025.3666   -2585.1993   -19.762564    12451.088 
    5550    300.92102    256.03428   -3034.4759   -2586.8787   -128.77298    12445.193 
    5600    291.41595    255.70758    -3023.586   -2590.1269    272.02309    12439.113 
    5650    295.95053    255.96832   -3032.2774   -2592.0734      183.492    12433.007 
    5700    293.34039    255.84607   -3028.2024   -2591.8808    310.29455    12426.888 
    5750    296.11522    255.94295   -3031.4317   -2590.9827    327.03795    12420.799 
    5800    301.90348    256.21786   -3040.5955    -2591.537    115.37178    12414.743 
    5850     311.1525    256.63553   -3054.5176   -2591.7018    -290.0067    12408.583 
    5900    308.56384    256.46981   -3048.9936   -2590.0283   -208.36426    12402.141 
    5950    294.28801    256.06271   -3035.4236   -2597.6925    234.80247     12395.45 
    6000    292.17921    256.11129    -3037.043   -2602.4485    266.14974    12388.724 
    6050     313.1509    256.94672   -3064.8905   -2599.1023   -474.29781    12381.964 
    6100     313.1165    257.01226   -3067.0753   -2601.3382   -457.92588    12374.845 
    6150    306.37435    256.70362   -3056.7872   -2601.0786    -110.7431    12367.328 
    6200     287.5776    256.12787   -3037.5955   -2609.8456    509.08865     12359.63 
    6250    301.20419    256.74973   -3058.3243   -2610.3059    147.63662    12352.013 
    6300     290.9053    256.28327   -3042.7758   -2610.0762    735.79133    12344.405 
    6350     295.0265    256.45951   -3048.6504   -2609.8208    697.86573    12337.036 
    6400    312.60586    257.24171   -3074.7238   -2609.7463    143.22911    12329.893 
    6450    303.24439    256.84432   -3061.4772   -2610.4241    565.79367    12322.749 
    6500    291.66842    256.47302   -3049.1007    -2615.266    949.79534    12315.773 
    6550    296.33476    256.65067   -3055.0224   -2614.2469    792.05998    12309.154 
    6600    287.96404    256.41505   -3047.1682   -2618.8435    975.14043    12302.856 
    6650     299.7867      256.863   -3062.0999   -2616.1899    549.98312     12296.93 
    6700    307.96182    257.20432   -3073.4773   -2615.4074    345.01323    12291.192 
    6750    304.39704    257.03672   -3067.8906    -2615.123      651.849    12285.521 
    6800    292.17434    256.70985   -3056.9949   -2622.4077    1138.8676    12280.089 
    6850     297.2637    256.89082   -3063.0273   -2620.8701     1000.703     12275.13 
    6900    301.53582    257.00503   -3066.8343   -2618.3226    940.34871    12270.591 
    6950    294.07306    256.71244   -3057.0815   -2619.6701    1255.1928    12266.453 
    7000    296.75909    256.86157   -3062.0523   -2620.6456    997.40408    12262.847 
    7050    305.30748    252.19654   -3073.2179   -2619.0962    724.41661    12259.643 
    7100    298.52047    251.87789   -3062.5964   -2618.5698    1081.8273    12256.738 
    7150    308.96976    252.21754    -3073.918   -2614.3489    721.09153    12254.219 
    7200    308.74613    252.24485   -3074.8282   -2615.5917    602.30185    12251.969 
    7250    304.39738    252.12293   -3070.7643   -2617.9963      824.662    12249.908 
    7300    295.34944    251.82471   -3060.8236   -2621.5137    1203.4005    12248.151 
    7350    294.37196    251.85158   -3061.7192   -2623.8632    1192.3094    12246.893 
    7400     295.3741    251.76628   -3058.8761   -2619.5295    1228.3837    12246.141 
    7450    305.44359    252.20179   -3073.3931    -2619.069    892.09697    12245.888 
    7500    314.58528    252.42653   -3080.8844   -2612.9627    563.07061    12245.989 
    7550    311.34954    252.41805   -3080.6017   -2617.4929     558.2188    12246.255 
    7600    290.51919    251.68799   -3056.2663    -2624.141    1140.0239    12246.733 
    7650    299.08006     251.9916   -3066.3868   -2621.5278    862.55076    12247.626 
    7700    292.52109    251.59803   -3053.2678   -2618.1649    1059.5958    12248.891 
    7750    314.12591    252.49583   -3083.1944   -2615.9559    261.39517     12250.54 
    7800    307.54747    252.21985    -3073.995   -2616.5415    461.82352    12252.265 
    7850    309.56091    252.30016   -3076.6721   -2616.2237    471.37389    12254.063 
    7900     285.3278    251.42133   -3047.3775   -2622.9741    1249.5547    12256.048 
    7950    291.15171    251.64703   -3054.9011    -2621.835    1089.0636    12258.518 
    8000    290.72204    251.71976   -3057.3254   -2624.8984    1041.2275    12261.465 
    8050    293.72793    256.86277   -3062.0923   -2625.1943    860.02078    12264.852 
    8100    292.46096    256.78194   -3059.3979   -2624.3844    808.35899    12268.603 
    8150    288.29288    256.66013   -3055.3375   -2626.5237    919.76259    12272.684 
    8200     279.9794     256.3275     -3044.25   -2627.8018    1240.5661    12277.169 
    8250    281.73288     256.3325   -3044.4167   -2625.3604    1152.7364     12282.21 
    8300    294.53207    256.87371   -3062.4569   -2624.3628    593.01753    12287.749 
    8350    300.92822    257.02599   -3067.5331   -2619.9252    371.45722    12293.518 
    8400    292.16894    256.64683   -3054.8943   -2620.3151    613.39741    12299.409 
    8450    298.99946    256.97217   -3065.7392   -2621.0001    284.66712     12305.48 
    8500    287.04837    256.51618   -3050.5393   -2623.5766    612.84492    12311.638 
    8550    289.38204    256.50991   -3050.3305   -2619.8966    536.15213    12318.004 
    8600      296.396    256.69064   -3056.3547   -2615.4881    332.18107    12324.559 
    8650     286.5047    256.35958   -3045.3192   -2619.1652    643.50209    12331.209 
    8700    286.83232    256.38946   -3046.3154   -2619.6741    597.41533    12338.091 
    8750    291.84852    256.49955   -3049.9849   -2615.8824    390.93607    12345.209 
    8800    298.94019    256.70938   -3056.9792   -2612.3283    75.364402    12352.421 
    8850    297.44916     256.6807   -3056.0232   -2613.5901    24.436129    12359.575 
    8900    290.44401    256.46877    -3048.959   -2616.9456    208.34678    12366.655 
    8950    298.01613    256.74006    -3058.002   -2614.7256    1.2628844    12373.708 
    9000    280.33588    256.01599   -3033.8665   -2616.8881    557.10437    12380.698 
    9050    281.36467    261.01616    -3033.872   -2615.3634    421.41668    12387.853 
    9100    301.40627    261.77581   -3059.1936   -2610.8746   -354.63696    12395.104 
    9150    298.99226    261.56101   -3052.0337   -2607.3053   -261.93334    12402.115 
    9200    283.98862    260.96877   -3032.2925   -2609.8809    187.13718    12408.904 
    9250    296.52829      261.409   -3046.9668   -2605.9034   -263.47035    12415.634 
    9300    293.69281    261.15821    -3038.607   -2601.7612   -170.67534    12422.171 
    9350    294.89005    261.05528   -3035.1762   -2596.5496   -166.91293    12428.504 
    9400    286.30462    260.60814   -3020.2712   -2594.4148    157.96368    12434.668 
    9450    287.25606    260.61311   -3020.4371   -2593.1654    85.419504    12440.793 
    9500    300.63615    261.09652   -3036.5505    -2589.377   -421.15599    12446.843 
    9550    299.03316    261.01609   -3033.8696   -2589.0805   -312.63351    12452.575 
    9600    284.21718    260.33699    -3011.233   -2588.4815     331.2112    12458.057 
    9650    285.24872    260.36743   -3012.2475   -2587.9617    354.88522    12463.597 
    9700    302.33267    260.96543   -3032.1809   -2582.4839   -113.47291    12469.201 
    9750    290.86496    260.46907   -3015.6358   -2582.9962    266.63741    12474.705 
    9800    295.59635    260.60613   -3020.2044   -2580.5272    54.984363    12480.215 
    9850     308.6692    261.06224    -3035.408   -2576.2859   -455.59813    12485.621 
    9900    315.05259    261.15804   -3038.6013   -2569.9844   -692.92675    12490.666 
    9950    301.68896    260.67035   -3022.3451   -2573.6057   -356.43131    12495.234 
   10000    291.07162    260.33065   -3011.0218   -2578.0748   -104.72214    12499.476 
   10050    294.39545    260.37043   -3012.3478   -2574.4568   -192.17221    12503.528 
   10100    293.96522    260.27354   -3009.1181   -2571.8671   -116.96973    12507.366 
   10150    280.17243    259.72106   -2990.7021   -2573.9668    281.14412    12511.052 
   10200    289.73303    260.04772   -3001.5908   -2570.6348   -93.179134    12514.746 
   10250    296.20546    260.20963   -3006.9875   -2566.4043   -360.92959    12518.289 
   10300     305.4169    260.56957   -3018.9857   -2564.7012   -674.89017    12521.496 
   10350    300.99876    260.41934    -3013.978   -2566.2652   -567.31053    12524.235 
   10400    299.82732    260.32332   -3010.7773   -2564.8069   -464.88721    12526.523 
   10450    285.45544    259.71935    -2990.645   -2566.0516    81.990936    12528.466 
   10500    285.79402    259.70866   -2990.2887   -2565.1918    127.09378    12530.329 
   10550    304.16791    260.40513   -3013.5044   -2561.0777   -411.85957    12532.121 
   10600    295.03232     260.0033     -3000.11   -2561.2718   -92.898291    12533.619 
   10650    291.00493    259.77765   -2992.5882   -2559.7404     9.872066    12534.929 
   10700    292.27573    259.81606   -2993.8685   -2559.1305   -38.422617    12536.116 
   10750    297.26347    259.92715   -2997.5716   -2555.4148   -91.241089    12537.173 
   10800    314.04635    260.55796   -3018.5988   -2551.4787    -580.8653    12538.029 
   10850    300.24038    260.01592   -3000.5308    -2553.946   -161.14717    12538.496 
   10900    295.47623    259.90956   -2996.9855    -2557.487   -55.214796    12538.709 
   10950    307.67603    260.36553   -3012.1844   -2554.5396    -408.9833    12538.738 
   11000    298.79601    260.03063   -3001.0209   -2556.5845    11.328856    12538.459 
   11050     294.5557    254.67502   -2989.1673    -2551.038    297.86595    12538.051 
   11100    298.37121    254.85737   -2995.2456    -2551.441    179.17074    12537.653 
   11150    296.98525    254.78797   -2992.9322   -2551.1892     222.3727    12537.232 
   11200    312.54505    255.31412   -3010.4706   -2545.5836   -280.33221    12536.759 
   11250    301.37314    254.87954   -2995.9846   -2547.7149    178.79974    12536.038 
   11300    302.98019    254.94713   -2998.2378   -2547.5777    230.45741    12535.236 
   11350    294.87919    254.63933   -2987.9776   -2549.3671    486.36089    12534.451 
   11400    299.84936    254.90985   -2996.9949   -2550.9917    292.20767    12533.769 
   11450    310.77194    255.29202   -3009.7339   -2547.4841   -64.574394    12533.105 
   11500    312.10351    255.30051   -3010.0171   -2545.7868   -10.927738    12532.278 
   11550     294.9347    254.68085   -2989.3618   -2550.6688    628.87614    12531.331 
   11600    299.77932    254.86035   -2995.3451   -2549.4461    405.40675    12530.559 
   11650     315.3835    255.34953    -3011.651    -2542.542   -222.89132     12529.87 
   11700    312.56658    255.25664   -3008.5548   -2543.6357   -218.52968    12528.951 
   11750    308.30059    255.13947    -3004.649   -2546.0752   -38.565387    12527.747 
   11800    306.01492    255.06769   -3002.2564   -2547.0824    26.097361    12526.364 
   11850    311.55905    255.37748   -3012.5827   -2549.1622   -192.68435    12524.835 
   11900    310.25203    255.27539   -3009.1797   -2547.7033   -86.307286     12523.06 
   11950    300.95021    254.91894   -2997.2978   -2549.6572    252.69686    12521.095 
   12000    300.46269    254.89295   -2996.4316   -2549.5161    243.32604    12519.117 
   12050    310.41603    260.27932   -3009.3106   -2547.5903   -92.387937    12517.115 
   12100    293.08418    259.56822   -2985.6074   -2549.6669    462.88044    12514.987 
   12150    286.40776    259.37057   -2979.0191   -2553.0092    608.96346    12512.956 
   12200    295.95398    259.68235   -2989.4118   -2549.2027    279.82567    12511.128 
   12250    301.02203     259.8682   -2995.6067   -2547.8592    92.568746    12509.352 
   12300    308.30531    260.25093   -3008.3643   -2549.7835   -193.23223    12507.485 
   12350    317.74359     260.5542   -3018.4732   -2545.8537   -494.78609    12505.374 
   12400    311.28421    260.31211   -3010.4037    -2547.392   -215.03792    12502.876 
   12450    309.76401    260.26357   -3008.7855    -2548.035   -102.00202    12500.113 
   12500    311.01664    260.26133   -3008.7109   -2546.0973   -55.750499    12497.165 
   12550    311.40319    260.32713   -3010.9042   -2547.7156   -74.090997    12494.037 
   12600    303.67039    260.00963   -3000.3209   -2548.6342    173.39265    12490.749 
   12650    302.83197    260.07444   -3002.4814   -2552.0418    249.90844    12487.405 
   12700    294.08488    259.72342   -2990.7808   -2553.3519    597.56834    12484.083 
   12750    303.74402    260.07647    -3002.549   -2550.7528    310.49438    12480.918 
   12800     297.7516    259.87667   -2995.8889    -2553.006    534.52669     12477.85 
   12850    299.25578    259.93538   -2997.8461   -2552.7258    466.63952    12474.944 
   12900    315.05606    260.67288   -3022.4292   -2553.8072   -101.11975    12472.129 
   12950    312.59656    260.70768   -3023.5894   -2558.6258   -88.818435    12469.165 
   13000    307.85703    260.48475   -3016.1583   -2558.2443    125.63514     12466.03 
   13050    305.30214    255.45306    -3015.102   -2560.9882    236.29483    12462.808 
   13100    293.27919    255.11096   -3003.6988   -2567.4682    537.23971    12459.594 
   13150    296.64028    255.18012   -3006.0039    -2564.774    451.97465    12456.514 
   13200    308.37941    255.61793   -3020.5976   -2561.9066    46.404607    12453.533 
   13250    318.77739    256.15101   -3038.3671   -2564.2099   -354.45302    12450.422 
   13300    308.22046    255.83371   -3027.7904   -2569.3358    28.844015    12446.995 
   13350     295.9839    255.41089   -3013.6964   -2573.4428    484.29201    12443.449 
   13400    289.92892    255.15351   -3005.1172   -2573.8699    737.75104    12440.031 
   13450    296.83898    255.49636   -3016.5453   -2575.0198    464.45651    12436.836 
   13500    297.10733    255.51978    -3017.326   -2575.4014    456.16334    12433.759 
   13550    307.72096    256.01829   -3033.9432   -2576.2316     65.97497    12430.758 
   13600    313.95114    256.36599   -3045.5331   -2578.5546   -276.80075    12427.646 
   13650    295.27701    255.73876   -3024.6252   -2585.4231    280.44176     12424.28 
   13700    288.00773    255.43611   -3014.5371   -2586.1474    539.30239    12420.909 
   13750     301.7567     256.0863   -3036.2098   -2587.3696    39.392745     12417.65 
   13800    304.89346    256.25633   -3041.8778   -2588.3719   -88.084803    12414.296 
   13850    293.86153    255.89724   -3029.9079   -2592.8111    296.23276    12410.755 
   13900    292.66399    255.99701   -3033.2336   -2597.9181    276.40266    12407.204 
   13950    298.71847    256.25654   -3041.8848   -2597.5637   -46.375365    12403.656 
   14000    289.44394    255.91239   -3030.4128   -2599.8869    214.61374    12399.969 
   14050    292.97607    256.08518   -3036.1725   -2600.3928    104.10338    12396.227 
   14100    299.73225    256.44074   -3048.0248   -2602.1958    -190.0538     12392.39 
   14150    300.54244    256.52784   -3050.9281   -2603.8939   -309.65778      12388.3 
   14200    296.89745    256.48442   -3049.4805   -2607.8681   -252.94044     12383.89 
   14250    294.90103    256.43617   -3047.8723   -2609.2293   -166.19859    12379.196 
   14300    303.20129    256.75049   -3058.3498   -2607.3609   -303.37123    12374.222 
   14350    281.90893     256.0335   -3034.4499   -2615.1317    503.72039    12368.992 
   14400    282.23275    256.09457   -3036.4858   -2616.6859    622.43649    12363.832 
   14450    285.20215    256.23512   -3041.1708   -2616.9542    466.62465    12358.861 
   14500    301.12182    256.87969   -3062.6562   -2614.7603    -163.6662     12353.98 
   14550    299.67848     256.8183   -3060.6102   -2614.8611   -92.110542    12348.882 
   14600     294.9022    256.66674    -3055.558   -2616.9133    178.12793    12343.587 
   14650     299.6188    256.86443   -3062.1476   -2616.4874    139.20345    12338.216 
   14700    294.74601    256.61966   -3053.9885   -2615.5762    423.09218    12332.772 
   14750    290.81648    256.40023   -3046.6744   -2614.1069    628.27055    12327.414 
   14800    301.46744    256.87846   -3062.6153   -2614.2053    275.83395    12322.206 
   14850     294.7454    256.66518    -3055.506   -2617.0946    522.36836    12317.031 
   14900     289.2592    256.59629   -3053.2097   -2622.9586    747.57852    12311.976 
   14950     294.3491    256.68017   -3056.0057   -2618.1837    595.34653    12307.165 
   15000    305.94979    257.06061   -3068.6869   -2613.6098    173.11529    12302.508 
   15050    298.07886    251.87706   -3062.5687    -2619.199    352.54289    12297.808 
   15100    295.92955    251.82094   -3060.6979   -2620.5251    415.94964    12293.113 
   15150    297.80461    251.85958   -3061.9859   -2619.0241    419.69271    12288.463 
   15200    296.47151    251.73003   -3057.6676   -2616.6887    614.53295    12283.891 
   15250    309.28791    252.26852   -3075.6172   -2615.5749    325.91689    12279.449 
   15300    303.77684     251.9832   -3066.1068   -2614.2617    578.41193     12275.06 
   15350    316.95635    252.43965   -3081.3216    -2609.873    203.32899    12270.769 
   15400    308.02921    252.10908   -3070.3028   -2612.1327    470.46315    12266.458 
   15450    304.47329    252.05661   -3068.5536   -2615.6727    668.66879    12262.199 
   15500     285.3065    251.38697   -3046.2323   -2621.8605    1378.7597    12258.176 
   15550    288.96129    251.56911   -3052.3037   -2622.4957    1245.5787    12254.693 
   15600    287.74547    251.51608   -3050.5359   -2622.5364    1258.2762    12251.755 
   15650    302.83583    252.07641   -3069.2135   -2618.7682    742.08972    12249.308 
   15700    311.51105    252.33093   -3077.6977   -2614.3487     455.6959    12247.116 
   15750    297.79396    251.86941   -3062.3138   -2619.3678    986.82038    12245.066 
   15800    299.11261    252.01105    -3067.035   -2622.1277    949.63124    12243.355 
   15850    306.88522    252.19765   -3073.2549   -2616.7864    660.34754    12241.998 
   15900    307.79239    252.19132   -3073.0441   -2615.2262    596.85916    12240.865 
   15950    298.52501    251.95444   -3065.1479   -2621.1146    880.92341     12239.93 
   16000    302.03906    252.05512   -3068.5038   -2619.2436    854.74959     12239.29 
   16050    295.38537    246.83476   -3061.1588   -2621.7954     1115.827    12238.978 
   16100    316.78555     247.6184   -3087.2799   -2616.0854    393.05021    12239.069 
   16150    314.77317    247.52827   -3084.2756   -2616.0743    427.42102    12239.255 
   16200    299.51446    247.00468   -3066.8227   -2621.3176    912.30274    12239.533 
   16250    308.52941    247.31139   -3077.0465   -2618.1323    650.44362    12240.108 
   16300    303.83068    247.15474   -3071.8246   -2619.8995    851.57114    12240.923 
   16350    312.97706    247.51303   -3083.7678   -2618.2381    569.55908    12242.011 
   16400    300.44723    247.07995   -3069.3318   -2622.4393    912.30433    12243.307 
   16450    312.73329    247.53749   -3084.5829   -2619.4158    478.93426    12244.907 
   16500    309.60716    247.35569   -3078.5231    -2618.006    606.57752     12246.67 
   16550    312.33807    247.55415   -3085.1383   -2620.5591    441.84919    12248.591 
   16600    307.96283    247.49392   -3083.1308   -2625.0594    473.11188    12250.621 
   16650    294.87364     246.9653     -3065.51   -2626.9078    891.64999    12252.789 
   16700    300.99435    247.22195   -3074.0651   -2626.3588    570.97668    12255.273 
   16750    313.48154    247.65228   -3088.4095   -2622.1294    35.377179    12257.924 
   16800     300.0379    247.14697   -3071.5657   -2625.2821    424.39866    12260.498 
   16850    291.74149    246.85962   -3061.9872   -2628.0439    635.93316    12263.156 
   16900    292.74453    247.09149   -3069.7162   -2634.2809    537.53596    12266.001 
   16950    282.30159    246.68893   -3056.2977   -2636.3955    895.88683    12269.063 
   17000    296.13187    247.25276   -3075.0921   -2634.6184    412.56539    12272.421 
   17050    285.10367    251.89521   -3063.1737   -2639.1036    683.24838    12275.942 
   17100    288.76026    252.09476   -3069.8253   -2640.3163    504.38279    12279.717 
   17150    291.51441    252.11396   -3070.4654   -2636.8598    378.52391    12283.667 
   17200    289.63171    252.09286   -3069.7621   -2638.9569    359.59825    12287.735 
   17250    287.73415    252.07841   -3069.2804   -2641.2977    345.71349    12291.897 
   17300    276.62378    251.73672   -3057.8905   -2646.4336    559.64705    12296.174 
   17350    283.03496    251.96226   -3065.4087   -2644.4157    278.63441    12300.633 
   17400    297.09264    252.49692   -3083.2306   -2641.3278    -294.1274    12305.136 
   17450    288.55979    252.11683   -3070.5611   -2641.3502     -53.5051    12309.439 
   17500    286.09489    252.12948   -3070.9826   -2645.4382   -23.616206    12313.584 
   17550    290.70559    252.26432   -3075.4775    -2643.075   -250.05792    12317.611 
   17600     300.5226    252.70506   -3090.1688   -2643.1642   -637.70591    12321.388 
   17650    294.43588    252.40394   -3080.1312   -2642.1802   -489.68031    12324.741 
   17700    283.54808    252.06515   -3068.8382   -2647.0819   -229.58344    12327.709 
   17750    273.67518    251.67208   -3055.7361    -2648.665    31.573462     12330.45 
   17800    289.16171    252.21869   -3073.9562   -2643.8501   -481.19258    12333.061 
   17850    296.71291    252.55093   -3085.0309   -2643.6929   -758.97058    12335.308 
   17900    292.87243    252.49966   -3083.3221   -2647.6965   -653.55192     12337.02 
   17950    287.74752    252.22275   -3074.0917   -2646.0891   -506.98661    12338.243 
   18000    294.15088     252.5085   -3083.6167   -2646.0895   -791.52784    12339.028 
   18050    281.16514    251.98385   -3066.1282   -2647.9164   -388.55752    12339.287 
   18100      289.078    252.39964   -3079.9879   -2650.0063   -660.01632    12339.142 
   18150    280.35735    252.10776   -3070.2587   -2653.2484   -383.60858    12338.528 
   18200     276.3506    251.95108   -3065.0361   -2653.9855   -302.59699    12337.525 
   18250    289.07835    252.43923   -3081.3077   -2651.3256    -756.4978    12336.178 
   18300    288.43028    252.40139   -3080.0462   -2651.0281   -672.77972     12334.28 
   18350    279.08459    252.10235   -3070.0785   -2654.9613   -298.93321    12331.863 
   18400    286.69802    252.38167   -3079.3891   -2652.9476   -487.91524    12329.087 
   18450    283.35085    252.27911   -3075.9702   -2654.5073   -308.95626    12325.888 
   18500    282.89412    252.26637   -3075.5456    -2654.762   -281.78702    12322.335 
   18550    280.57784    252.13329   -3071.1095   -2653.7712   -218.66888    12318.455 
   18600    294.57641    252.66471   -3088.8237   -2650.6636   -635.29526    12314.226 
   18650    277.43272     252.0247     -3067.49   -2654.8298    32.209353    12309.542 
   18700    290.34702    252.42136   -3080.7121   -2648.8429   -309.12162    12304.623 
   18750    294.40241    252.66837   -3088.9456   -2651.0443   -489.79135    12299.348 
   18800    285.73238    252.35568   -3078.5227   -2653.5174   -134.88826    12293.628 
   18850     284.1633    252.21479   -3073.8264   -2651.1551    64.824194    12287.625 
   18900    279.38536    252.02367   -3067.4555    -2651.891    349.85505    12281.467 
   18950    291.91902    252.42494   -3080.8313   -2646.6239    91.684714    12275.264 
   19000     298.8928    252.71261   -3090.4203   -2645.8399   -105.57846    12268.897 
   19050      286.445    247.21516   -3073.8388   -2647.7736    309.99776    12262.307 
   19100     299.0147    247.66181    -3088.727   -2643.9653    38.008102    12255.629 
   19150    299.38898     247.5897   -3086.3233   -2641.0049    208.42448    12248.763 
   19200    295.76852    247.32126   -3077.3753    -2637.442    560.12275    12241.777 
   19250    296.87948    247.31152   -3077.0506   -2635.4649    680.42157    12234.843 
   19300    300.72575    247.49121   -3083.0403   -2635.7335    569.37674    12228.028 
   19350     296.8232    247.23481   -3074.4937   -2632.9917    823.87379     12221.32 
   19400    321.28133    248.09268   -3103.0895   -2625.2078    217.86429    12214.765 
   19450    312.24124    247.74192   -3091.3973   -2626.9621     679.2203    12208.154 
   19500    316.74752    247.94558   -3098.1861   -2627.0481    566.17882    12201.649 
   19550    323.17398     248.1557   -3105.1899   -2624.4931     355.1596    12195.221 
   19600    303.99098     247.4779   -3082.5967   -2630.4331    1093.6305    12188.791 
   19650    304.18334    247.45317   -3081.7722   -2629.3226     1235.843    12182.686 
   19700    307.26979    247.44123   -3081.3743   -2624.3337    1360.1089    12177.029 
   19750     305.5066    247.35495   -3078.4982   -2624.0803    1576.7868    12171.889 
   19800    301.77589    247.22577   -3074.1922   -2625.3235    1659.9988    12167.404 
   19850     314.9385    247.68403   -3089.4675   -2621.0204    1224.1327    12163.585 
   19900    317.22407    247.72901   -3090.9669   -2619.1201    1234.9531    12160.254 
   19950    317.96923    247.72101   -3090.7004   -2617.7452    1273.7646    12157.395 
   20000    317.37698    247.63234   -3087.7446   -2615.6704     1345.738    12155.035 
   20050    309.00582    242.33479   -3077.8265   -2618.2037     1663.565     12153.22 
   20100    309.62849    242.33257   -3077.7524   -2617.2035    1656.6102    12152.109 
   20150    328.72367    243.01908   -3100.6361   -2611.6846    1030.3794    12151.675 
   20200    319.88189      242.615   -3087.1665   -2611.3665    1424.9353    12151.658 
   20250    315.35967    242.54949   -3084.9831   -2615.9095     1613.663    12152.217 
   20300    309.91839    242.32771   -3077.5903   -2616.6102    1815.2755    12153.488 
   20350    305.16358     242.1059   -3070.1966    -2616.289    1930.6469    12155.583 
   20400    326.29441     242.8862   -3096.2066   -2610.8684    1122.5548    12158.526 
   20450    320.16244    242.68739   -3089.5797   -2613.3623    1263.0628    12161.966 
   20500    302.15266    242.06505   -3068.8349   -2619.4057    1803.3304    12165.988 
   20550    320.89488    242.66631   -3088.8769   -2611.5701    1080.0677    12170.803 
   20600    339.64943    243.37607   -3112.5357   -2607.3329    421.19454     12176.07 
   20650    308.34516    242.35903   -3078.6344   -2619.9944    1404.4945    12181.536 
   20700    296.92482    241.85533   -3061.8442    -2620.191    1738.8006    12187.626 
   20750    322.05576    242.75199   -3091.7331   -2612.6996    743.29048    12194.485 
   20800    297.79151    242.00486   -3066.8286   -2623.8863    1283.5208    12201.756 
   20850    318.75442    242.61342   -3087.1141   -2612.9911    628.40844    12209.553 
   20900    315.37903    242.52137   -3084.0458   -2614.9434    659.49024    12217.647 
   20950    306.64537    242.29877   -3076.6255   -2620.5138    896.99165    12226.029 
   21000    305.78682    242.34197   -3078.0658   -2623.2311    709.24643    12234.816 
   21050    313.89679    242.67023   -3089.0077     -2622.11    236.82049    12243.894 
   21100    307.79389     242.5271   -3084.2366   -2626.4165    288.14748    12253.062 
   21150    313.57954    242.74026    -3091.342   -2624.9162    40.980463    12262.283 
   21200    298.80512    242.26452   -3075.4841   -2631.0341    354.85281    12271.498 
   21250    306.68206    242.59789   -3086.5965   -2630.4301   -80.374232     12280.79 
   21300    297.49085    242.28001   -3076.0004   -2633.5053   -1.5663877    12290.011 
   21350    295.92203    242.22817   -3074.2723   -2634.1107    1.4635306    12299.142 
   21400    296.99525    242.27006   -3075.6685   -2633.9106   -130.55501    12308.212 
   21450    293.41883    242.22148   -3074.0495   -2637.6112   -233.66517    12317.146 
   21500    295.78087     242.2894   -3076.3135   -2636.3618   -470.23169     12325.87 
   21550    297.45329    242.42569   -3080.8562    -2638.417   -544.56336    12334.262 
   21600    282.68182    241.92022   -3064.0074   -2643.5396   -38.278757    12342.307 
   21650    292.29152    242.34079   -3078.0263   -2643.2648   -462.85132    12350.192 
   21700    290.06592    242.32001   -3077.3335   -2645.8824   -607.31574    12357.747 
   21750     287.2842    242.28802   -3076.2672   -2648.9538   -743.07593    12364.872 
   21800    301.31317    242.74869   -3091.6229   -2643.4424   -1325.9463    12371.459 
   21850     291.7563     242.3734   -3079.1134    -2645.148   -1065.4072    12377.237 
   21900    277.28315    241.74844   -3058.2813   -2645.8436   -668.03613    12382.312 
   21950    293.85978    242.36425   -3078.8082   -2641.7141   -1144.4554    12386.831 
   22000     271.1831    241.61175   -3053.7252   -2650.3609   -477.70283    12390.658 
   22050    286.94301    242.24241   -3074.7471   -2647.9411   -1042.4905    12394.003 
   22100    283.84982    242.14043   -3071.3475   -2649.1424   -1024.5842    12396.665 
   22150    276.71748    241.86299   -3062.0996   -2650.5033   -762.62657    12398.617 
   22200    283.32476    242.10039   -3070.0129   -2648.5888   -937.99011    12399.959 
   22250    282.80317    241.99171   -3066.3902   -2645.7419   -938.87186     12400.63 
   22300    298.23916    242.53852   -3084.6172   -2641.0091   -1545.7194     12400.57 
   22350    293.49125    242.33857   -3077.9524   -2641.4064   -1417.1439    12399.498 
   22400    275.60047    241.73244   -3057.7479    -2647.813   -819.35933    12397.456 
   22450    271.75675    241.66041   -3055.3469   -2651.1293   -682.36768    12394.742 
   22500    292.96986    242.41568   -3080.5228   -2644.7524   -1349.7702    12391.405 
   22550     289.6189    242.31352   -3077.1174   -2646.3312   -1249.0297    12387.156 
   22600    286.13896    242.18259   -3072.7531    -2647.143   -1026.1446    12381.984 
   22650    292.93215    242.39295   -3079.7651   -2644.0507   -1093.7568    12376.003 
   22700     303.2476    242.69158   -3089.7195   -2638.6616   -1327.6189    12369.156 
   22750    293.21042    242.35211   -3078.4038   -2642.2755   -1041.6625    12361.351 
   22800    288.65451     242.2063   -3073.5434   -2644.1917   -794.98666    12352.715 
   22850    286.55675    242.13565   -3071.1882   -2644.9567   -559.34732    12343.389 
   22900    288.04917    242.23582   -3074.5275   -2646.0762   -473.55454    12333.493 
   22950    298.09868    242.48605   -3082.8685   -2639.4693   -661.60674    12323.064 
   23000     297.8739    242.48477   -3082.8256   -2639.7607   -521.17757    12312.026 
   23050     301.2278    237.53194    -3084.398   -2636.3445   -410.06768    12300.416 
   23100    297.94972    237.34539   -3078.1798   -2635.0021   -132.23558    12288.307 
   23150    294.51741    237.37025   -3079.0083   -2640.9359    47.700527    12275.835 
   23200    294.86182    237.37368   -3079.1225   -2640.5379    142.35758     12263.12 
   23250    304.31008     237.6992   -3089.9734   -2637.3352    34.305812    12250.198 
   23300    304.44222    237.66178    -3088.726   -2635.8912    267.61407    12237.025 
   23350    301.41936    237.50834   -3083.6115    -2635.273    434.41234    12223.727 
   23400    318.08273    238.07846   -3102.6152   -2629.4913    100.17646    12210.339 
   23450    304.97694    237.58532   -3086.1775   -2632.5474    763.15546    12196.772 
   23500    311.00466    237.82831   -3094.2771   -2631.6813    754.81675    12183.308 
   23550    304.05933    237.71665   -3090.5551   -2638.2899    1032.5941    12170.018 
   23600    303.75703    237.61893   -3087.2975    -2635.482    1253.8991     12157.02 
   23650    308.17724    237.81108   -3093.7028   -2635.3125    1249.3861    12144.425 
   23700    319.01676    238.16199   -3105.3996   -2630.8864     953.6277    12132.237 
   23750    324.65807    238.37388   -3112.4628   -2629.5585    781.20195    12120.318 
   23800    312.16953    237.92306   -3097.4353   -2633.1068    1299.6872    12108.593 
   23850    305.88237    237.79737   -3093.2455   -2638.2687    1574.2198    12097.308 
   23900    307.43772    237.85434   -3095.1448   -2637.8545    1597.6891    12086.644 
   23950     327.1672     238.6065   -3120.2167   -2633.5802    1119.1222     12076.56 
   24000    313.45989    238.16148   -3105.3826   -2639.1348    1733.5337    12066.894 
   24050    323.72076     238.5465   -3118.2165   -2636.7064    1597.5607    12057.869 
   24100      338.164    239.09112   -3136.3705   -2633.3772    1220.8658    12049.462 
   24150    331.24076    238.89428   -3129.8094   -2637.1139    1587.9001    12041.505 
   24200    315.98829    238.38739   -3112.9131   -2642.9044    2136.8864    12034.182 
   24250    312.79631    238.38435   -3112.8116   -2647.5507    2253.3221    12027.744 
   24300    314.36264    238.37708   -3112.5692   -2644.9786     2359.756    12022.277 
   24350    306.79589    238.14506   -3104.8354   -2648.4998    2705.3545    12017.884 
   24400    312.34826    238.34292   -3111.4305   -2646.8361    2532.3288    12014.693 
   24450    307.91403    238.12914   -3104.3045   -2646.3057    2627.8397    12012.661 
   24500    315.76268    238.54466   -3118.1552   -2648.4821    2202.8105    12011.799 
   24550    328.51428    239.01976    -3133.992   -2645.3519    1673.0167    12011.918 
   24600    329.56688    239.16653   -3138.8845   -2648.6787    1548.4468    12012.747 
   24650    315.11184    238.67042   -3122.3474   -2653.6424    1887.9565     12014.23 
   24700    316.77068    238.84181   -3128.0604    -2656.888    1703.1615    12016.496 
   24750    315.87203    238.72221   -3124.0736   -2654.2379    1694.3319    12019.507 
   24800    307.28478    238.48424   -3116.1414   -2659.0786    1933.3813    12023.245 
   24850    310.85969    238.65365   -3121.7884   -2659.4081    1788.8108    12027.818 
   24900    308.02446    238.54017   -3118.0057   -2659.8427    1800.9381    12033.209 
   24950    320.12472    239.06401   -3135.4672   -2659.3059    1371.4644    12039.341 
   25000    291.18527    238.01322   -3100.4406   -2667.3246    2260.7855     12046.13 
   25050    308.33782    238.61869   -3120.6231    -2661.994    1649.5901    12053.887 
   25100    323.78091    239.13646   -3137.8819   -2656.2824    957.74775    12062.385 
   25150    323.87751    239.24467   -3141.4889   -2659.7457    753.12561     12071.25 
   25200    305.98433    238.66372   -3122.1241   -2666.9956    1163.9189    12080.398 
   25250    303.25192    238.53031   -3117.6769   -2666.6126    1215.5902    12089.999 
   25300    291.42293    238.17934    -3105.978   -2672.5085    1383.5309    12100.132 
   25350    303.92247    238.67551    -3122.517   -2670.4554     727.7192    12110.828 
   25400    311.65122    238.96099    -3132.033   -2668.4754    323.24831    12121.786 
   25450    297.78749    238.47126   -3115.7085   -2672.7722    630.04495    12132.823 
   25500    299.68531    238.50428   -3116.8093   -2671.0501    517.27114    12144.034 
   25550    287.32337    238.12451   -3104.1502   -2676.7785     751.9728    12155.417 
   25600    293.60558    238.46935   -3115.6448   -2678.9288    274.80694    12167.042 
   25650    292.10024    238.35233   -3111.7442   -2677.2673     132.6672    12178.705 
   25700    288.72781    238.19054   -3106.3514   -2676.8907    143.63157    12190.299 
   25750    285.70925    237.97559   -3099.1863   -2674.2154    192.70892    12201.846 
   25800      283.562    237.95433   -3098.4777   -2676.7007     92.92261     12213.35 
   25850    286.52675    238.08258   -3102.7526   -2676.5658   -155.86615    12224.759 
   25900    289.20192    238.24821   -3108.2738   -2678.1078   -416.14893    12235.952 
   25950    290.76239    238.24474    -3108.158    -2675.671   -569.90359    12246.777 
   26000    289.78579    238.16961   -3105.6538   -2674.6194   -643.42754    12257.136 
   26050    295.37006    233.35967    -3111.989   -2672.6485   -879.76868     12266.97 
   26100    290.05262    233.13528   -3104.5094   -2673.0781   -690.09091    12276.159 
   26150    280.70425    232.70436   -3090.1452   -2672.6189    -323.8544    12284.808 
   26200     291.3538    233.03838   -3101.2793   -2667.9126   -665.36339     12293.06 
   26250    287.80545    232.98454   -3099.4848    -2671.396   -734.74717    12300.782 
   26300    284.10599    232.84122   -3094.7073   -2672.1212   -725.16632    12307.917 
   26350    276.80552    232.66617   -3088.8723   -2677.1451   -516.21384    12314.479 
   26400    287.33774    232.99506   -3099.8353   -2672.4422    -798.2013    12320.542 
   26450    287.80407    232.91685   -3097.2283   -2669.1415   -878.91128    12325.993 
   26500    283.70105    232.75788   -3091.9294   -2669.9456    -859.8128    12330.773 
   26550     292.3205    232.94202   -3098.0672   -2663.2626   -1133.8608     12334.86 
   26600    282.75148    232.53477   -3084.4924    -2663.921   -853.71814    12338.165 
   26650    293.86846    232.99523   -3099.8411    -2662.734   -1245.5978    12340.757 
   26700    299.51011    233.15799   -3105.2664   -2659.7679    -1529.995    12342.467 
   26750    303.31199    233.24921   -3108.3071   -2657.1535   -1597.4953    12343.114 
   26800    283.04876    232.58324   -3086.1081   -2665.0946     -867.643    12342.721 
   26850    289.22195    232.71305   -3090.4349   -2660.2392    -887.3249    12341.604 
   26900    292.85675    232.80794    -3093.598   -2657.9958   -958.26489    12339.792 
   26950     277.5803    232.29508   -3076.5028   -2663.6232   -473.77446    12337.271 
   27000    283.74107    232.45031   -3081.6771   -2659.6337   -552.81997    12334.239 
   27050    288.91372    227.57713   -3085.9042    -2656.167   -643.33571      12330.7 
   27100    291.34915    227.65291   -3088.4303   -2655.0705   -570.48958    12326.593 
   27150    290.50194    227.63212   -3087.7375   -2655.6379   -507.23692    12321.961 
   27200    297.07371    227.71534   -3090.5113   -2648.6367   -670.09345    12316.803 
   27250    298.54642    227.77638    -3092.546   -2648.4808   -629.07594     12311.05 
   27300    310.65161    228.13509   -3104.5029   -2642.4322   -878.39092    12304.703 
   27350    311.89842    228.21096   -3107.0321   -2643.1069   -865.94593     12297.66 
   27400    301.39326     227.8677   -3095.5901   -2647.2905   -475.52485    12289.933 
   27450    298.88596    227.67949   -3089.3164   -2644.7462   -280.16726    12281.701 
   27500    298.85086    227.69421   -3089.8071   -2645.2891   -179.82658    12273.078 
   27550    300.18329    227.69681   -3089.8935   -2643.3936   -122.68735     12264.13 
   27600    314.14837    228.22825   -3107.6082   -2640.3363   -452.30942    12254.859 
   27650    308.83236    228.03001   -3101.0004   -2641.6357   -196.06803    12245.146 
   27700    319.27899    228.37393   -3112.4643    -2637.561   -306.45712    12235.061 
   27750    305.16627    227.87533   -3095.8444   -2641.9327    209.25249    12224.637 
   27800    323.78566    228.47877   -3115.9589   -2634.3522   -301.84025    12214.024 
   27850     311.2087    228.05151   -3101.7169   -2638.8176    181.25762    12203.072 
   27900    300.02838    227.66088    -3088.696   -2642.4265    714.86595    12191.994 
   27950    323.11142    228.49684   -3116.5613   -2635.9576    129.67933    12181.021 
   28000     313.9243    228.23043    -3107.681   -2640.7424    509.44596    12169.957 
   28050     318.7593    228.39849   -3113.2829   -2639.1526    509.52546    12158.911 
   28100    314.51727    228.34416   -3111.4719   -2643.6513    798.56647    12147.931 
   28150    318.36002    228.45121   -3115.0403   -2641.5039    859.35517    12137.149 
   28200    326.56818    228.64801   -3121.6003   -2635.8548     691.6055     12126.61 
   28250    325.65739    228.61419   -3120.4731   -2636.0825    831.41237    12116.227 
   28300    325.97045    228.61399   -3120.4664   -2635.6101    991.73494    12106.056 
   28350    312.68176    228.21964   -3107.3214    -2642.231    1402.6646    12096.229 
   28400    327.14251    228.77962   -3125.9873   -2639.3876    1029.0862    12086.877 
   28450     318.7479    228.40041   -3113.3469   -2639.2335    1437.1429    12077.887 
   28500    309.85467    228.18904   -3106.3013    -2645.416    1815.5055    12069.457 
   28550    309.92861    228.18808   -3106.2695   -2645.2741    1957.7915    12061.775 
   28600    305.09136    228.13499   -3104.4996   -2650.6993    2119.4104    12054.923 
   28650    310.76325    228.35516   -3111.8386   -2649.6018    1909.3757    12048.989 
   28700    322.51288    228.81822    -3127.274   -2647.5605    1526.8779    12043.832 
   28750    319.38272    228.66288   -3122.0959   -2647.0383    1632.8654    12039.281 
   28800    323.42009       228.92   -3130.6667   -2649.6038    1447.6607    12035.354 
   28850    335.27926    229.35653   -3145.2176   -2646.5151    1061.6327    12031.959 
   28900    319.51287    228.84415   -3128.1384   -2652.8872    1525.2614    12028.948 
   28950    308.16225    228.48906    -3116.302    -2657.934    1884.5843    12026.506 
   29000    324.64865     229.1167   -3137.2233    -2654.333    1357.8619    12024.811 
   29050    329.37172    224.23343   -3141.1142   -2651.1988    1211.4191    12023.624 
   29100    316.52984    223.95057   -3131.6857   -2660.8715    1577.3753    12022.861 
   29150    326.02638    224.25494   -3141.8314   -2656.8919    1333.5688    12022.654 
   29200    308.13555    223.67453   -3122.4845   -2664.1562    1738.8517    12022.961 
   29250    326.84947    224.22196    -3140.732   -2654.5681    1117.4977    12023.875 
   29300    312.89902    223.85916   -3128.6388   -2663.2252    1435.0493    12025.209 
   29350    330.32735    224.54679   -3151.5597   -2660.2228    870.96849    12026.991 
   29400     315.7904    224.03122   -3134.3739   -2664.6597    1298.4017    12029.054 
   29450    301.08898    223.57569   -3119.1897   -2671.3427    1753.1357    12031.569 
   29500    307.47253    223.87054   -3129.0179   -2671.6758    1521.6381    12034.747 
   29550    311.48994    224.03818    -3134.606   -2671.2883    1234.3651    12038.504 
   29600    312.39862    224.15242   -3138.4141   -2673.7448    1057.3446    12042.685 
   29650     314.7486    224.22338   -3140.7792   -2672.6145    957.05565    12047.204 
   29700    306.17695     223.9732     -3132.44    -2677.025    1107.7966    12052.017 
   29750     302.7539    223.75526   -3125.1752   -2674.8517    1120.4877    12057.178 
   29800    324.39418    224.55354   -3151.7846   -2669.2728     464.5056    12062.655 
   29850    300.65356    223.79226   -3126.4087   -2679.2093    1099.1112    12068.224 
   29900    303.26285    223.84866   -3128.2887   -2677.2082    885.66562    12074.094 
   29950    304.13924    223.88545    -3129.515   -2677.1309    729.97119    12080.214 
   30000    302.02004    223.86079    -3128.693   -2679.4611    765.05096    12086.507 
   30050    297.37052    228.72429   -3124.1431    -2681.827    854.59099    12092.995 
   30100    296.61841    228.77791   -3125.9302   -2684.7328    678.70007    12099.715 
   30150    306.43337    229.11421   -3137.1405   -2681.3441    195.50321    12106.575 
   30200    293.16837    228.72285   -3124.0948   -2688.0291    452.85994     12113.37 
   30250    300.30996    228.85151   -3128.3838   -2681.6955    294.35261     12120.16 
   30300     299.6929    228.81359   -3127.1197   -2681.3492    198.98883    12126.914 
   30350    305.10411    228.95224   -3131.7413   -2677.9221   -96.633883    12133.568 
   30400    294.97118    228.62461   -3120.8204   -2682.0732    218.04645    12139.986 
   30450    295.76583    228.74722   -3124.9073   -2684.9781    108.92032    12146.276 
   30500    297.17608    228.85356    -3128.452   -2686.4251   -104.77974    12152.414 
   30550    290.90822    228.69362   -3123.1205   -2690.4166    1.7952035    12158.295 
   30600    288.63014     228.5968   -3119.8934    -2690.578   -30.568992    12163.963 
   30650    300.38462    228.93548   -3131.1827   -2684.3833   -532.09713    12169.387 
   30700    309.94306    229.26251   -3142.0838    -2681.067   -922.47057    12174.309 
   30750    302.34638    229.07376   -3135.7919   -2686.0746   -727.85159    12178.531 
   30800     295.3401    228.81116   -3127.0388   -2687.7428   -537.54911    12182.145 
   30850    291.66224    228.69699   -3123.2329   -2689.4075   -463.28292    12185.243 
   30900    283.72605    228.47623   -3115.8744   -2693.8534   -341.02333    12187.883 
   30950    295.24509    228.82453   -3127.4844   -2688.3297   -671.22679    12190.082 
   31000    282.47867    228.39682   -3113.2274   -2693.0618   -217.50745    12191.766 
   31050    287.82374    233.55118   -3118.3727   -2690.2567   -305.49945    12193.102 
   31100    280.59352    233.27477   -3109.1589   -2691.7973   -50.477874    12194.098 
   31150    279.81422    233.28249   -3109.4163   -2693.2139   -71.766264    12194.859 
   31200    283.15133    233.43778   -3114.5927   -2693.4265   -272.51909    12195.379 
   31250    286.42336    233.56854   -3118.9512   -2692.9182   -361.65185    12195.552 
   31300     271.7018    233.06409   -3102.1364   -2698.0006    182.29947    12195.396 
   31350     289.2656    233.60509   -3120.1697   -2689.9091   -271.51747    12195.087 
   31400    295.05336    233.77834   -3125.9447   -2687.0752   -460.19124    12194.453 
   31450    289.07239    233.54912   -3118.3041   -2688.3308   -183.52156    12193.394 
   31500     283.9862    233.32973    -3110.991    -2688.583   -29.527947    12192.032 
   31550       286.82    233.39045    -3113.015    -2686.392   -219.30424    12190.451 
   31600    290.22838    233.49577   -3116.5258    -2684.833   -278.46446    12188.559 
   31650    282.78263    233.32081   -3110.6935   -2690.0758    3.0756986    12186.329 
   31700     296.1474    233.68407   -3122.8024   -2682.3055   -286.27693     12183.88 
   31750    299.92692    233.74326   -3124.7755   -2678.6569   -295.19062    12181.108 
   31800    298.14918    233.74317   -3124.7723    -2681.298   -245.36255     12177.98 
   31850    288.00958    233.38064   -3112.6881   -2684.2957    86.503563    12174.545 
   31900    281.83824    233.11146   -3103.7152   -2684.5022    345.83817    12170.961 
   31950    295.84987    233.65344   -3121.7814   -2681.7271     5.122803    12167.328 
   32000    296.43791    233.62491   -3120.8302   -2679.9013    86.507692    12163.537 
   32050    306.17637    238.84806   -3128.2687   -2672.8546   -106.52363    12159.596 
   32100    289.72349    238.18956   -3106.3187   -2675.3769    452.28299    12155.461 
   32150    288.71806    238.13833   -3104.6111   -2675.1649    486.90387    12151.356 
   32200    298.28312    238.47513   -3115.8376    -2672.164    260.48969    12147.326 
   32250    295.24904    238.30953   -3110.3176    -2671.157    521.79552    12143.296 
   32300    305.90088    238.61705   -3120.5682   -2665.5638    404.52019    12139.335 
   32350    290.01199    238.03196   -3101.0653   -2669.6944    1055.5243     12135.45 
   32400    300.23227     238.3454   -3111.5134   -2664.9407    868.64031    12131.898 
   32450     302.7813     238.3867   -3112.8902   -2662.5259    806.84176    12128.652 
   32500    303.11511    238.25705   -3108.5685   -2657.7077     951.2663    12125.646 
   32550    307.51185    238.42364   -3114.1212   -2656.7206     903.4894    12122.948 
   32600     310.0349    238.47891   -3115.9635   -2654.8101    864.62163    12120.558 
   32650    308.11239     238.3759     -3112.53   -2654.2361    1049.4238    12118.446 
   32700    284.61311    237.61171   -3087.0571   -2663.7167    1750.3902    12116.749 
   32750     305.6297    238.30147    -3110.049    -2655.448    1075.1963    12115.724 
   32800    300.40076    238.17336   -3105.7785   -2658.9551    1224.7748    12115.144 
   32850    299.89593    238.15621   -3105.2071   -2659.1347    1218.2971    12115.024 
   32900    321.70873    238.85307   -3128.4357   -2649.9183     512.0375    12115.326 
   32950    298.85516    238.02471   -3100.8235   -2656.2991    1230.6827    12115.807 
   33000    311.64934    238.38012   -3112.6707    -2649.116    911.90124    12116.691 
   33050    312.88058    238.41872   -3113.9574   -2648.5712    894.71555      12117.9 
   33100    316.57811    238.51289   -3117.0965   -2646.2105    840.50812    12119.398 
   33150    305.63579    238.11123   -3103.7077   -2649.0977    1233.0494    12121.192 
   33200    302.88991    238.08177   -3102.7256   -2652.1998    1261.8659    12123.451 
   33250    319.64102    238.57827   -3119.2758    -2643.834     673.5462    12126.176 
   33300    300.32014    237.81937    -3093.979   -2647.2755    1250.3392    12129.143 
   33350    303.95268    237.92253   -3097.4177   -2645.3112    1207.6356     12132.54 
   33400    287.70296    237.33959   -3077.9865   -2650.0501    1771.7035    12136.459 
   33450    291.63588     237.5243   -3084.1433   -2650.3571     1524.339    12141.116 
   33500    313.52354    238.27922   -3109.3075    -2642.965    699.79786    12146.373 
   33550    299.93916    237.81563   -3093.8544   -2647.7176    1009.1389    12151.894 
   33600    305.26358    237.98664   -3099.5548   -2645.4984    797.43247    12157.751 
   33650    316.51233    238.37196   -3112.3988   -2641.6107    379.20766    12163.837 
   33700     302.5796    237.87581   -3095.8604   -2645.7961    799.59195    12169.997 
   33750    303.15996    237.85951    -3095.317   -2644.3896    736.07206    12176.374 
   33800    304.06606    237.94156   -3098.0521   -2645.7769    570.09639    12182.969 
   33850    301.04718    237.83394   -3094.4646   -2646.6798    643.71562     12189.71 
   33900    307.42602    238.07877   -3102.6257   -2645.3528    466.23289    12196.605 
   33950     308.3113    238.14547    -3104.849   -2646.2593     376.7955    12203.571 
   34000    294.67407    237.62487   -3087.4957   -2649.1904    713.09215    12210.578 
   34050     296.7496    242.61832   -3087.2772   -2645.8846     569.6495    12217.769 
   34100    300.38923     242.8483   -3094.9432    -2648.137    313.30232      12225.1 
   34150    295.97551    242.64508   -3088.1692   -2647.9281    396.07943    12232.452 
   34200    288.98641    242.33697   -3077.8991   -2648.0537    460.23801    12239.876 
   34250    309.64786    242.96851   -3098.9505   -2638.3727   -211.10622    12247.347 
   34300    295.30823     242.5027   -3083.4233   -2644.1747    205.25704    12254.601 
   34350    303.65371    242.84036   -3094.6787   -2643.0168   -90.721596    12261.746 
   34400    293.46122    242.45344   -3081.7814   -2645.2801    220.65377    12268.719 
   34450    283.55778     242.0383   -3067.9432   -2646.1725    510.08011    12275.645 
   34500    292.07334    242.47721   -3082.5736   -2648.1367   -24.956814    12282.635 
   34550    293.29299     242.5321   -3084.4033   -2648.1522   -244.74021    12289.461 
   34600    292.27545     242.4655   -3082.1832   -2647.4456   -248.92831    12295.992 
   34650    298.03491    242.62625   -3087.5417   -2644.2374   -441.16873    12302.199 
   34700    289.54538     242.3197   -3077.3233   -2646.6465   -253.75188    12308.019 
   34750    283.56617    242.07152   -3069.0507   -2647.2675   -119.67718    12313.523 
   34800     287.9369    242.14257   -3071.4189   -2643.1346   -284.96165     12318.77 
   34850     279.6077    241.96323   -3065.4411   -2649.5459   -121.12954    12323.714 
   34900    280.91263    241.98619   -3066.2062   -2648.3699   -220.84135    12328.414 
   34950    278.38549    241.80835   -3060.2782   -2646.2009   -201.13756    12332.849 
   35000     289.0674    242.09833   -3069.9442   -2639.9783   -592.60965    12336.976 
   35050    292.75516    247.24224   -3074.7414   -2639.2903   -720.54112    12340.624 
   35100    286.73434    247.01284   -3067.0946    -2640.599   -461.75079     12343.74 
   35150    301.44025     247.5315   -3084.3832   -2636.0137   -942.76403    12346.389 
   35200    303.20584    247.56949   -3085.6496   -2634.6539    -944.0555    12348.376 
   35250    286.60977     246.9341   -3064.4701   -2638.1598    -285.6251     12349.72 
   35300    292.32069    247.14975   -3071.6584   -2636.8536    -516.8278    12350.702 
   35350     297.7072    247.18939   -3072.9798   -2630.1629   -703.13515    12351.236 
   35400    275.85044    246.39115   -3046.3716    -2636.065     43.56985    12351.263 
   35450    286.47209     246.7234   -3057.4468   -2631.3413   -143.58066    12351.095 
   35500    284.27865    246.70874   -3056.9578   -2634.1149   -41.576742    12350.724 
   35550    287.56621    246.76311   -3058.7702   -2631.0373   -84.345964    12350.159 
   35600    282.82633    246.60809   -3053.6029   -2632.9202    140.67321    12349.411 
   35650    285.78809    246.74205   -3058.0685   -2632.9804    168.46457    12348.574 
   35700    294.24742    246.94531   -3064.8437    -2627.173   -11.286337    12347.669 
   35750     303.9648     247.2855   -3076.1835   -2624.0589   -393.94776    12346.584 
   35800    294.03886    246.79528   -3059.8425    -2622.482   -119.43169    12345.158 
   35850    288.86764     246.5736   -3052.4533   -2622.7846    58.538526    12343.487 
   35900    299.98325    246.96576   -3065.5255   -2619.3231   -214.72911     12341.66 
   35950     291.7552    246.58682    -3052.894   -2618.9303    114.69328    12339.599 
   36000    303.10021    246.92847   -3064.2822   -2613.4436   -174.16538    12337.387 
   36050    299.70515    246.77125   -3059.0417    -2613.253   -37.080979     12334.95 
   36100    300.12583    246.73742   -3057.9141   -2611.4997    10.398079    12332.318 
   36150    295.23497     246.5514   -3051.7132   -2612.5735    161.59331    12329.533 
   36200    310.53366    247.14063   -3071.3543    -2609.459   -340.10042    12326.639 
   36250    301.95338    246.74237    -3058.079   -2608.9462    19.443151    12323.452 
   36300    288.66177    246.30888   -3043.6293   -2614.2668    493.84874    12320.113 
   36350    297.24752    246.69369   -3056.4564   -2614.3233    329.43921    12316.862 
   36400    304.14012     246.8365   -3061.2167   -2608.8314    237.66702    12313.645 
   36450    307.73597    247.06621   -3068.8737   -2611.1397    76.150963    12310.387 
   36500    299.99376    246.64154   -3054.7182   -2608.5002    425.11392     12307.04 
   36550    303.56963    246.74007   -3058.0025   -2606.4657    372.71235    12303.741 
   36600    301.31101    246.72073   -3057.3578   -2609.1805    383.45815      12300.5 
   36650     303.2662    246.86507    -3062.169   -2611.0835    298.99029    12297.297 
   36700    303.49953    246.79347   -3059.7825   -2608.3499    366.96603    12294.109 
   36750    299.97153    246.69109   -3056.3696   -2610.1847    561.77246    12290.971 
   36800    300.84417    246.76249   -3058.7498   -2611.2669    546.67743    12287.964 
   36850    323.10263    247.54255   -3084.7517   -2604.1611   -131.17235    12285.037 
   36900    315.16895    247.22431   -3074.1438   -2605.3539    226.29848     12281.94 
   36950     314.6854    247.15898   -3071.9661   -2603.8954    386.63408    12278.785 
   37000    308.90909    246.99639   -3066.5462   -2607.0674    624.72176     12275.68 
   37050    294.50767    241.51229   -3050.4096   -2612.3518    1093.0853    12272.763 
   37100    303.09635    241.83851   -3061.2838   -2610.4509    811.81413    12270.232 
   37150    300.93463    241.80603   -3060.2011   -2612.5836     787.2724        12268 
   37200    317.56281    242.28145   -3076.0482   -2603.6976    286.96701    12265.989 
   37250    313.68856     242.2186   -3073.9534   -2607.3654    357.61455    12263.996 
   37300    322.58678     242.4295   -3080.9834     -2601.16    206.29951        12262 
   37350    307.59001     242.0192   -3067.3067   -2609.7899    667.20313    12259.971 
   37400    308.98403     242.1097   -3070.3232   -2610.7329    568.78387    12258.088 
   37450    317.73721     242.4835   -3082.7834   -2610.1734    251.82497    12256.332 
   37500    314.22769    242.37139   -3079.0465   -2611.6566    447.97063    12254.553 
   37550    297.05681    241.90993   -3063.6643   -2621.8149    986.52358    12252.865 
   37600    299.29802    242.06392   -3068.7972   -2623.6141    880.54377    12251.509 
   37650    305.33456    242.18139   -3072.7129   -2618.5509    664.38937    12250.458 
   37700    310.75609    242.32123   -3077.3743   -2615.1482    327.69103    12249.595 
   37750    314.49773     242.4592   -3081.9732   -2614.1817     171.8955    12248.726 
   37800    297.08502    241.87475   -3062.4917   -2620.6003    775.60141    12247.821 
   37850    307.85472    242.35281   -3078.4269   -2620.5163    416.14441    12247.114 
   37900    312.74076    242.60971   -3086.9902    -2621.812    276.98165    12246.471 
   37950    309.30988    242.50951   -3083.6502   -2623.5752    404.41106    12245.815 
   38000    309.57133    242.52068   -3084.0226   -2623.5587    361.58976    12245.182 
   38050    303.66376    242.29843   -3076.6143   -2624.9374    580.56525    12244.586 
   38100    301.32702    242.24063   -3074.6878   -2626.4867     733.1327     12244.13 
   38150    301.62549    242.36062   -3078.6872   -2630.0422    652.60354    12243.889 
   38200    304.55787    242.58417   -3086.1391   -2633.1323    473.98624    12243.819 
   38250    301.01009    242.45942   -3081.9806   -2634.2509    492.96939    12243.861 
   38300     312.8066    242.85017   -3095.0058   -2629.7296    62.663553    12243.969 
   38350    305.21714    242.64911   -3088.3036   -2634.3163    208.97744    12243.963 
   38400    303.63907    242.61055   -3087.0184   -2635.3783    231.55406    12243.874 
   38450    305.82865    242.68426   -3089.4753   -2634.5783    113.06956    12243.721 
   38500    294.88989    242.33919   -3077.9732   -2639.3468    281.28645    12243.481 
   38550     294.3963    242.38898   -3079.6327   -2641.7405    253.54326    12243.195 
   38600    299.87314    242.56584   -3085.5282   -2639.4896    138.74664    12242.871 
   38650    302.92991     242.7542   -3091.8066   -2641.2213    104.22067    12242.459 
   38700    293.46663    242.49343   -3083.1143    -2646.605    441.85083    12241.953 
   38750    297.86937    242.61705   -3087.2351    -2644.177    289.27176    12241.484 
   38800    300.83224    242.81813   -3093.9378   -2646.4726    98.832229    12241.004 
   38850    295.71965    242.67148   -3089.0493   -2649.1887    251.75853    12240.435 
   38900    313.03164    243.25265   -3108.4215   -2642.8107   -159.22794    12239.775 
   38950    300.21923     242.7575   -3091.9167   -2645.3634    288.05487    12238.913 
   39000    293.10956    242.56596    -3085.532   -2649.5537    376.45545     12238.01 
   39050    291.50436    237.57568   -3085.8561   -2652.2654    227.81061    12237.112 
   39100    290.57033    237.52412   -3084.1372   -2651.9359    168.13268    12236.158 
   39150    295.92032    237.75571   -3091.8569   -2651.6978   -32.730965    12235.112 
   39200    300.19255    237.90949   -3096.9828   -2650.4692   -176.00106    12233.859 
   39250     295.6706      237.751   -3091.7002   -2651.9125   -42.639607    12232.334 
   39300    292.90633    237.75214   -3091.7378   -2656.0619    19.290804    12230.596 
   39350    288.03986    237.62975   -3087.6582   -2659.2208     163.9766    12228.685 
   39400    293.37253    237.81829   -3093.9429   -2657.5735    42.457443    12226.665 
   39450    295.02058    237.82391   -3094.1303   -2655.3096    138.30593      12224.5 
   39500    289.89968     237.6992   -3089.9733   -2658.7695    371.41496     12222.23 
   39550    297.92981     237.9748   -3099.1599   -2656.0119    166.28376    12219.958 
   39600     299.9843    238.02701   -3100.9002   -2654.6963    45.049967    12217.599 
   39650    310.93318    238.41416   -3113.8052   -2651.3156   -384.07673    12215.069 
   39700    307.95352    238.35004   -3111.6679   -2653.6104   -320.36583    12212.165 
   39750    303.21116    238.18085   -3106.0282   -2655.0245   -75.843947    12208.878 
   39800     300.3328    238.14872   -3104.9575   -2658.2352   -1.0924707    12205.362 
   39850    296.28445    237.95673   -3098.5576    -2657.857    145.38748    12201.661 
   39900     293.0836    237.86438   -3095.4792   -2659.5396    341.67445    12197.855 
   39950     304.5528    238.36179   -3112.0598   -2659.0606     58.73256    12194.022 
   40000    299.47829     238.2272   -3107.5732    -2662.122    173.49715    12190.044 
   40050    294.16955    238.01236   -3100.4121   -2662.8572    347.21778    12185.979 
   40100     285.6255    237.82332   -3094.1106   -2669.2643    572.34075    12181.942 
   40150    298.69182     238.2916     -3109.72   -2665.4386    174.40603    12177.977 
   40200    287.11989    237.88246   -3096.0819   -2669.0129    552.75947    12173.966 
   40250    296.89427    238.25904   -3108.6346   -2667.0269    321.84358    12170.025 
   40300    307.03915    238.60209   -3120.0696   -2663.3722    84.317839    12166.079 
   40350    299.03163    238.28679   -3109.5598   -2664.7729    488.46165    12162.016 
   40400    297.52401    238.29979   -3109.9931   -2667.4487    589.78275    12158.005 
   40450    289.80369    238.02917   -3100.9724   -2669.9113    764.23656    12154.139 
   40500    285.32329    237.87924   -3095.9748   -2671.5781    844.38334    12150.498 
   40550    308.36912     238.5854   -3119.5135   -2660.8378    203.23769    12147.082 
   40600    316.01762    238.79192   -3126.3973    -2656.345     32.96515    12143.609 
   40650    296.38475    238.24961   -3108.3204   -2667.4705    639.33483    12139.983 
   40700    287.27604     237.9576   -3098.5867   -2671.2854    938.91013    12136.492 
   40750    308.59404     238.7194     -3123.98   -2664.9697    307.35286    12133.284 
   40800    308.51812    238.67389   -3122.4629   -2663.5656    403.41796    12130.093 
   40850     299.0948    238.34959    -3111.653   -2666.7722    644.76169    12126.921 
   40900    314.73985    239.07486   -3135.8287    -2667.677     106.2628    12123.848 
   40950    285.82858    238.00763   -3100.2543   -2675.1059    1110.8609    12120.757 
   41000    299.62896    238.40216   -3113.4055   -2667.7301    775.56808    12117.995 
   41050    303.89081    233.49369   -3116.4562   -2664.4416    693.19185    12115.478 
   41100    302.91506    233.45254   -3115.0847   -2664.5215     839.3217    12113.124 
   41150    303.94273    233.53476   -3117.8255   -2665.7337    895.81379    12111.011 
   41200    292.55711    233.19998    -3106.666   -2671.5094    1190.2579    12109.199 
   41250    307.56808     233.7724   -3125.7466   -2668.2624    582.15573    12107.763 
   41300    308.06909    233.86976    -3128.992   -2670.7626     478.1812    12106.466 
   41350    311.31197    233.99715   -3133.2382   -2670.1852    328.80418    12105.211 
   41400    309.96688    233.95598   -3131.8659   -2670.8137    342.47605    12103.929 
   41450    302.38878    233.69558   -3123.1859   -2673.4055    577.53142    12102.629 
   41500    292.14318    233.49632    -3116.544   -2682.0032    830.94457    12101.441 
   41550    298.69756    233.79023   -3126.3409    -2682.051    592.39634    12100.465 
   41600    300.10388    233.84313   -3128.1042   -2681.7224    498.35277    12099.622 
   41650    297.28347    233.85595   -3128.5317    -2686.345    544.80781    12098.854 
   41700     299.8152    234.00604   -3133.5347   -2687.5824    420.11223    12098.172 
   41750    299.59937    234.01256   -3133.7519   -2688.1205    379.97372    12097.534 
   41800    287.67844    233.75729    -3125.243   -2697.3431    630.04507    12096.921 
   41850    287.58324    233.72917   -3124.3058   -2696.5475    563.15394    12096.439 
   41900     291.4152    233.91875   -3130.6251   -2697.1671    331.97929    12096.061 
   41950    291.76082    234.05621   -3135.2071    -2701.235    279.13868    12095.671 
   42000    291.07932    234.06285   -3135.4283   -2702.4698    311.70182    12095.257 
   42050    305.81157    234.62188   -3154.0627   -2699.1912    -156.1305    12094.782 
   42100    293.90406    234.33673   -3144.5576   -2707.3976    65.524077    12094.066 
   42150    284.62596    233.98847   -3132.9491   -2709.5896    291.79274    12093.185 
   42200    289.52119     234.2345   -3141.1498    -2710.509    166.86355    12092.252 
   42250    296.87128    234.54772   -3151.5907   -2710.0171    -13.74265     12091.22 
   42300    281.86844    234.03083   -3134.3611   -2715.1032    458.96239    12090.021 
   42350    278.87292    233.98129   -3132.7098   -2717.9074    526.71021    12088.851 
   42400    292.04227    234.57784   -3152.5946   -2718.2039    24.850345    12087.745 
   42450    284.95906    234.33957   -3144.6523   -2720.7973    206.84396    12086.507 
   42500    275.83712    233.96643   -3132.2145   -2721.9277    504.84095      12085.2 
   42550    283.25225    234.29915   -3143.3051   -2721.9888    253.93145    12083.942 
   42600    290.70902     234.5442   -3151.4732   -2719.0656    84.940075    12082.633 
   42650    286.45121    234.39031   -3146.3438   -2720.2693    261.15414    12081.201 
   42700    286.61317    234.40754   -3146.9182   -2720.6028    229.73553    12079.708 
   42750    295.15462    234.68752   -3156.2507   -2717.2306   -97.612465    12078.123 
   42800    289.99693    234.37042   -3145.6808   -2714.3323    44.581033    12076.306 
   42850    268.74286    233.77861   -3125.9537   -2726.2191    681.12177    12074.343 
   42900    272.18368    233.88358   -3129.4528   -2724.6002    651.64433    12072.539 
   42950    281.71055    234.23582   -3141.1941    -2722.171    380.92592    12070.892 
   43000    277.48951    234.02735   -3134.2452   -2721.5005    554.89182    12069.292 
   43050    285.44125     234.2712   -3142.3732    -2717.801     327.6189    12067.764 
   43100    283.32385    234.11067   -3137.0224   -2715.5996    441.48032    12066.227 
   43150    278.82089     233.9473   -3131.5768   -2716.8518    677.26482    12064.752 
   43200    289.61072    234.35267   -3145.0891   -2714.3151    339.99017    12063.418 
   43250    302.86567    234.79538   -3159.8459   -2709.3562    -62.24392     12062.05 
   43300    272.76267    233.72666   -3124.2219   -2718.5081     969.4617    12060.543 
   43350    288.28028    234.20511   -3140.1705   -2711.3754    564.10881    12059.271 
   43400    302.01516    234.69775   -3156.5916   -2707.3669    100.26894    12058.113 
   43450    291.01691    234.29263   -3143.0875   -2710.2219    483.99552    12056.856 
   43500    281.70432    233.96634   -3132.2112   -2713.1974     812.8819    12055.653 
   43550    287.92928    234.16319   -3138.7731   -2710.5001    663.59165    12054.668 
   43600    288.12737     234.0648   -3135.4932   -2706.9256    780.53022     12053.88 
   43650    290.78322    234.13715   -3137.9049   -2705.3869    755.49019    12053.301 
   43700    295.56803    234.19969   -3139.9895   -2700.3545    707.48524     12052.93 
   43750    297.78863    234.35732   -3145.2438   -2702.3058    666.04975    12052.741 
   43800    293.14733     234.1504   -3138.3465   -2702.3121    903.32944     12052.72 
   43850    283.04777    233.73488   -3124.4958   -2703.4837    1237.6756    12053.007 
   43900    298.39067    234.23866   -3141.2885    -2697.455    750.15348     12053.72 
   43950    291.61612    233.99135   -3133.0452   -2699.2883    972.00345    12054.688 
   44000    288.09087    233.84305   -3128.1017   -2699.5884    1113.4015    12055.981 
[...]
   89400    314.64293    251.69975   -3056.6582   -2588.6507    580.33435    12322.699 
   89450    299.39002    251.17241   -3039.0802   -2593.7603     1269.375     12310.71 
   89500    296.20722    251.09888   -3036.6292   -2596.0435     1383.247    12299.207 
   89550    309.56194    251.53387   -3051.1291   -2590.6792    1004.7813    12288.263 
   89600    305.48845    251.33087   -3044.3622   -2589.9713       1259.6    12277.739 
   89650     313.4367    251.67781   -3055.9271   -2589.7138    1091.3152    12267.689 
   89700    304.56976    251.44889   -3048.2963   -2595.2718    1500.4845    12258.096 
   89750    300.27734    251.30768   -3043.5892   -2596.9494    1851.3854    12249.156 
   89800    298.82405     251.2374   -3041.2468   -2596.7686    1999.2815    12241.051 
   89850    309.74722    251.62271   -3054.0903   -2593.3648    1713.7098    12233.845 
   89900    311.16735    251.64722   -3054.9074   -2592.0695    1723.9265    12227.446 
   89950    310.81508    251.60397   -3053.4658   -2591.1519    1725.8243    12221.818 
   90000    311.46257    251.56165   -3052.0551   -2588.7782    1733.1393    12216.963 
   90050    307.78917    251.48238   -3049.4126   -2591.5996    1949.0947      12212.9 
   90100    307.49544    251.62599   -3054.1996   -2596.8234    1917.3994    12209.745 
   90150    320.44014     251.9647     -3065.49   -2588.8595    1471.1148     12207.46 
   90200    323.04448    252.06335   -3068.7784   -2588.2742    1356.6293    12205.841 
   90250    320.19708    251.96289   -3065.4298   -2589.1609    1432.0138    12204.823 
   90300    316.57411    251.79855   -3059.9518   -2589.0718    1619.7269    12204.431 
   90350    310.84885     251.6343   -3054.4767   -2592.1126    1914.4069    12204.782 
   90400    317.85228     251.9273   -3064.2433   -2591.4621    1693.3192    12205.995 
   90450    319.68862    252.21733    -3073.911   -2598.3984    1451.4362    12207.984 
   90500    306.67147    251.69464   -3056.4881   -2600.3375    1786.9101    12210.673 
   90550    311.87431    251.89728   -3063.2428   -2599.3534    1501.4759    12214.152 
   90600    306.42857     251.6924   -3056.4132    -2600.624    1577.6874    12218.341 
   90650     302.7791    251.65217   -3055.0723   -2604.7114    1593.9497     12223.25 
   90700    306.22545    251.92679   -3064.2263   -2608.7391    1290.2487    12228.882 
   90750    307.83557    252.05619   -3068.5398   -2610.6577     1057.327    12235.102 
   90800    297.59117    251.54579   -3051.5265   -2608.8822    1344.0674    12241.822 
   90850    306.75887      251.957   -3065.2332   -2608.9526    946.29223    12249.107 
   90900    304.11935    251.97447   -3065.8158   -2613.4613    913.41251    12256.819 
   90950    309.27098     252.1668   -3072.2266   -2612.2095    597.95041    12264.906 
   91000    310.98477    252.36531   -3078.8437   -2616.2774    325.07058    12273.209 
   91050    297.85062    246.88115   -3062.7051   -2619.6748    585.69674    12281.616 
   91100    305.48714    247.26542   -3075.5141   -2621.1251    161.97221    12290.166 
   91150    303.50803    247.15691   -3071.8968   -2620.4516    62.000225    12298.692 
   91200    304.83156    247.15603   -3071.8675   -2618.4537   -104.43047    12307.117 
   91250    281.18046    246.40866   -3046.9555   -2628.7209    490.07406    12315.414 
   91300    287.09847    246.62559   -3054.1865   -2627.1492    170.22368      12323.8 
   91350    295.32641    246.87909   -3062.6363   -2623.3606   -231.12605    12332.155 
   91400    284.17923    246.60246   -3053.4153   -2630.7202    41.330127    12340.293 
   91450    289.36727    246.78245   -3059.4149   -2629.0031   -149.74298    12348.296 
   91500    285.19748    246.63811   -3054.6036    -2630.394   -95.253566    12356.097 
   91550    293.85097     246.9444   -3064.8133   -2627.7323   -435.47157    12363.679 
   91600    292.47529    246.96149   -3065.3829   -2630.3481   -553.15095    12370.894 
   91650      272.818    246.25752   -3041.9173   -2636.1212   -54.353419    12377.704 
   91700    287.55839     246.7036   -3056.7865   -2629.0652   -487.78015    12384.284 
   91750    290.76206    246.86503   -3062.1677   -2629.6811   -640.64244    12390.475 
   91800    291.63114    246.83615   -3061.2051   -2627.4259   -662.09422    12396.168 
   91850    284.54356    246.59996    -3053.332    -2630.095   -551.04325    12401.366 
   91900    286.09729    246.68248   -3056.0827   -2630.5347   -713.87394    12406.087 
   91950    289.95176      246.875   -3062.5001   -2631.2188   -865.25098    12410.263 
   92000    283.64179    246.60592   -3053.5308   -2631.6351   -636.35014    12413.834 
   92050    274.31814    246.26867    -3042.289   -2634.2616   -327.05722    12416.903 
   92100    278.72524    246.39601   -3046.5335   -2631.9509   -433.66288    12419.609 
   92150    264.17941    245.83465   -3027.8215   -2634.8747   -1.9732329    12421.964 
   92200    278.87987    246.38733   -3046.2445   -2631.4318   -549.21226    12424.116 
   92250     288.3931    246.72706   -3057.5686   -2628.6058   -934.53637    12425.836 
   92300    301.55407    247.14898   -3071.6328    -2623.094   -1306.6192    12426.852 
   92350    282.62591    246.35915    -3045.305   -2624.9203   -637.51624    12427.035 
   92400    289.43776     246.5649   -3052.1635   -2621.6468    -827.0799    12426.646 
   92450    289.20576     246.5862   -3052.8734   -2622.7018    -817.3061    12425.641 
   92500    280.72399    246.23042   -3041.0138   -2623.4582   -453.95812     12424.03 
   92550    280.96128    246.23586   -3041.1954   -2623.2868   -374.16542    12421.983 
   92600    280.12554    246.25159   -3041.7196   -2625.0541   -376.65914    12419.566 
   92650    289.43635    246.44741    -3048.247   -2617.7324   -647.79965    12416.782 
   92700    289.42576    246.41098   -3047.0326   -2616.5338   -418.11883    12413.477 
   92750    283.74127    246.25342   -3041.7806    -2619.737    -108.9935    12409.766 
   92800    301.74965    246.91154   -3063.7179   -2614.8882   -662.71172    12405.778 
   92850    294.81519    246.57302    -3052.434   -2613.9188   -362.62483    12401.292 
   92900    292.94623    246.51591   -3050.5303   -2614.7949   -136.56453    12396.411 
   92950     276.2544    245.96286   -3032.0952   -2621.1877    433.08553     12391.32 
   93000     291.6169     246.5106   -3050.3533   -2616.5952   -112.91291    12386.253 
   93050    307.62852    247.08673   -3069.5575   -2611.9834    -693.1821    12380.958 
   93100    302.05393    246.79782   -3059.9273    -2610.645   -467.97741    12375.127 
   93150    300.12137    246.75503   -3058.5009   -2612.0931   -398.83896     12368.85 
   93200    293.09288    246.43187   -3047.7291   -2611.7757   -61.710408    12362.185 
   93250    292.00783    246.35395   -3045.1316    -2610.792    121.60021    12355.306 
   93300    294.90229    246.44027   -3048.0091   -2609.3642    137.13307    12348.338 
   93350    299.27983    246.57717   -3052.5722   -2607.4161     177.6126     12341.26 
   93400    294.98316    246.39584   -3046.5279   -2607.7628    487.10314    12334.128 
   93450    303.81398    246.69995    -3056.665   -2604.7647    312.58304    12327.058 
   93500    306.99969    246.81418   -3060.4726   -2603.8338    282.87235    12319.995 
   93550    306.94627    246.74019   -3058.0062   -2601.4469    427.95412    12312.917 
   93600    308.46145    246.81243   -3060.4143   -2601.6012    514.16032    12305.892 
   93650    310.55171    246.94294   -3064.7646   -2602.8425    589.99045    12298.983 
   93700    309.23226    246.86745   -3062.2484   -2602.2889    778.09162    12292.231 
   93750    303.64784    246.72386    -3057.462   -2605.8088    1043.6754    12285.742 
   93800    309.39597    246.78459   -3059.4863   -2599.2833    967.80814     12279.63 
   93850     309.8968    246.76887   -3058.9622   -2598.0142     917.6544    12273.883 
   93900    307.60409    246.72811   -3057.6037   -2600.0659    956.20731    12268.458 
   93950    302.23365    246.48491   -3049.4969   -2599.9473    1167.6244      12263.4 
   94000    308.89356    246.73514   -3057.8379   -2598.3821    1032.0752      12258.8 
   94050    301.27022     251.5634   -3052.1132   -2603.9966    1297.9544    12254.623 
   94100    294.93052    251.34565   -3044.8551   -2606.1683     1579.753    12251.001 
   94150    311.76643    252.00287   -3066.7624   -2603.0335     1032.066    12248.067 
   94200    320.04852    252.24462   -3074.8206   -2598.7726    783.94464    12245.554 
   94250     308.9245    251.86059   -3062.0195   -2602.5178    1238.3528    12243.352 
   94300    321.87584    252.38602   -3079.5342   -2600.7682    876.84678    12241.622 
   94350    304.16813     251.7453   -3058.1765   -2605.7495    1369.0836    12240.283 
   94400    315.65062    252.10244   -3070.0815   -2600.5751    981.97212    12239.471 
   94450    308.60707    251.77162    -3059.054   -2600.0244     1238.007    12239.096 
   94500    313.24014    251.87674   -3062.5582   -2596.6372    1143.8053    12239.227 
   94550    311.26496    251.89893   -3063.2978   -2600.3147    1188.0411    12239.838 
   94600    295.22971    251.34117   -3044.7056   -2605.5738    1648.6754        12241 
   94650    312.51228    251.98805   -3066.2683     -2601.43     1015.655    12242.848 
   94700    315.07658    252.11848   -3070.6159   -2601.9634     950.8583    12245.142 
   94750     304.7851    251.71866   -3057.2888    -2603.944    1330.4151     12247.85 
   94800    311.79957    252.00099   -3066.6998   -2602.9216    1011.8019    12251.105 
   94850    315.57636    252.13774    -3071.258   -2601.8621    804.74169    12254.776 
   94900    301.31799    251.64928   -3054.9759   -2606.7882    1354.9124    12258.789 
   94950    288.22104    251.21408   -3040.4693   -2611.7623    1777.0611    12263.405 
   95000    296.68262    251.58046   -3052.6821   -2611.3891    1297.0803    12268.829 
   95050    297.93494     246.6638   -3055.4601   -2612.3044    1110.4881    12274.856 
   95100    292.75065    246.46413   -3048.8043   -2613.3599    1211.2485    12281.368 
   95150    303.90729    246.88756   -3062.9185   -2610.8795    742.29005    12288.384 
   95200    297.39491    246.65938   -3055.3126   -2612.9602    817.34069    12295.711 
   95250    294.59626    246.60353   -3053.4511   -2615.2615    793.29468    12303.339 
   95300     305.6709    247.10464   -3070.1548   -2615.4925    272.50933    12311.238 
   95350    301.04911    246.83752   -3061.2505   -2613.4628    340.79829    12319.185 
   95400    292.22722    246.56762   -3052.2538    -2617.588    490.05852    12327.179 
   95450    293.85494    246.65329   -3055.1098   -2618.0228    271.04831    12335.292 
   95500    294.83876    246.69908   -3056.6359   -2618.0856    28.674653    12343.437 
   95550    301.19735    247.00586   -3066.8619   -2618.8537   -332.19309    12351.443 
   95600    283.13995    246.30267   -3043.4223   -2622.2731    150.64715    12359.183 
   95650    293.48892    246.73934    -3057.978   -2621.4354   -197.16696    12366.811 
   95700    284.51259    246.42817   -3047.6058   -2624.4149    61.233274    12374.234 
   95750     292.8118    246.67458   -3055.8193   -2620.2839   -311.35565    12381.519 
   95800    298.35913    246.89923   -3063.3078   -2619.5212   -654.71332    12388.499 
   95850    284.41346    246.48838   -3049.6126   -2626.5692   -294.11624    12394.995 
   95900    282.93407    246.43542   -3047.8474   -2627.0044   -273.87043    12401.163 
   95950    282.94097    246.50707   -3050.2358   -2629.3825   -356.98433    12407.026 
   96000    282.38374     246.5607   -3052.0234    -2631.999   -380.94963    12412.558 
   96050    278.33428    246.41342    -3047.114   -2633.1128   -303.08866    12417.761 
   96100    275.72197    246.30916   -3043.6385    -2633.523   -350.23334    12422.637 
   96150    284.85577    246.66081   -3055.3603   -2631.6589   -749.27415    12427.151 
   96200    290.97231    246.86184   -3062.0613    -2629.262   -1005.0757    12431.109 
   96250      287.399    246.74305   -3058.1016   -2630.6173   -1056.4382    12434.354 
   96300    281.64522    246.54002   -3051.3341   -2632.4082   -1038.5568     12436.85 
   96350    278.78839    246.48943   -3049.6476    -2634.971   -914.27405    12438.611 
   96400    267.89449    246.05142   -3035.0474   -2636.5746   -486.93115    12439.732 
   96450    277.45608    246.50567   -3050.1888   -2637.4939   -831.59462    12440.375 
   96500    274.17028    246.32111    -3044.037   -2636.2294   -765.34891     12440.43 
   96550     281.9464    246.59459   -3053.1531   -2633.7792   -1134.3523    12439.873 
   96600    286.90744    246.72851   -3057.6169   -2630.8638   -1405.3947    12438.524 
   96650    286.95211    246.80787   -3060.2623   -2633.4428    -1390.905    12436.222 
   96700    276.30051    246.46178   -3048.7258   -2637.7498   -955.40784    12432.997 
   96750    270.59656    246.18684   -3039.5614   -2637.0695    -633.4019    12429.063 
   96800    281.88632    246.69263   -3056.4211   -2637.1366   -1042.4492    12424.567 
   96850    279.84032    246.69089    -3056.363   -2640.1218   -993.94568    12419.349 
   96900    269.95463    246.31439   -3043.8131   -2642.2761   -574.28489    12413.426 
   96950    278.67168    246.62986   -3054.3287   -2639.8257   -733.42243    12406.983 
   97000    277.85764    246.65343   -3055.1142    -2641.822   -656.39812    12399.993 
   97050    287.64191    251.97654   -3065.8846    -2638.039   -895.70945    12392.451 
   97100    279.63509    251.76995   -3058.9983   -2643.0623    -621.6046    12384.288 
   97150    277.38638    251.60719   -3053.5731   -2640.9819   -406.48253    12375.625 
   97200    280.68102    251.59688   -3053.2292   -2635.7374   -347.66115    12366.597 
   97250    295.79732    252.12043   -3070.6812   -2630.7051   -630.30421    12357.203 
   97300    290.34461    251.89944   -3063.3145   -2631.4489   -158.45412    12347.351 
   97350    296.47287    252.02845   -3067.6151   -2626.6342   -115.28083    12337.231 
   97400     294.8004     251.9281   -3064.2699   -2625.7767    72.836586    12326.914 
   97450    291.09483    251.74905   -3058.3018   -2625.3203     366.3999    12316.502 
   97500    299.13913    251.99541   -3066.5136   -2621.5668    307.42786    12306.114 
   97550    297.85205    251.97823    -3065.941   -2622.9087    429.25654    12295.759 
   97600    308.96983    252.29611    -3076.537   -2616.9678    248.41307    12285.485 
   97650    297.88502    251.80291   -3060.0971   -2617.0157    850.74544     12275.25 
   97700     305.7694    252.01962   -3067.3207   -2612.5118    712.31111    12265.289 
   97750    309.53519     252.0372   -3067.9066   -2607.4965     712.3604    12255.595 
   97800    307.84181    251.96088   -3065.3628   -2607.4715    989.01519    12246.153 
   97850    315.47368    252.19473   -3073.1577   -2603.9145    951.94908    12237.092 
   97900     307.5834    251.84324   -3061.4414   -2603.9344    1442.0697     12228.43 
   97950    302.80963    251.71195   -3057.0651   -2606.6587    1728.4838    12220.398 
   98000    309.18021    251.91035   -3063.6783   -2603.7962    1538.0997     12213.15 
   98050    322.29265    247.28218   -3076.0726   -2596.6867    1229.1014     12206.57 
   98100    310.40191    246.87438   -3062.4793   -2600.7799    1657.0013    12200.544 
   98150    305.95074    246.79978   -3059.9927   -2604.9142    1862.3433    12195.233 
   98200    312.10117    247.02636   -3067.5454   -2603.3185    1659.5115     12190.76 
   98250    328.93821    247.58744   -3086.2482   -2596.9775    1158.5856    12186.999 
   98300     319.4758    247.21411   -3073.8036   -2598.6075    1568.1697     12183.75 
   98350    323.35774    247.32106   -3077.3688   -2596.3987     1505.179    12181.154 
   98400    321.72783     247.1949   -3073.1633   -2594.6175    1513.9233    12179.203 
   98450     326.1004    247.39758   -3079.9194   -2594.8697    1346.9993    12177.878 
   98500    321.62356    247.18096   -3072.6986    -2594.308    1593.5683    12177.151 
   98550    315.77315    246.88283    -3062.761   -2593.0724    1862.5922    12177.124 
   98600    322.48351     247.0854   -3069.5133   -2589.8435    1712.7975    12177.916 
   98650    301.93282    246.43312   -3047.7705   -2598.6684    2244.1536    12179.518 
   98700    320.30653    247.19978   -3073.3259   -2596.8942    1489.9723     12182.09 
   98750    321.00194    247.25406   -3075.1353   -2597.6692    1419.9341    12185.354 
   98800    315.72227    247.17159   -3072.3864   -2602.7735    1526.7631    12189.221 
   98850    322.06052    247.35426   -3078.4753   -2599.4347    1296.8878    12193.742 
   98900     321.1536    247.35743   -3078.5811   -2600.8894    1271.1898    12198.816 
   98950    308.74529    246.88642   -3062.8806   -2603.6453    1614.2398    12204.436 
   99000    308.08834    247.01081   -3067.0271    -2608.769    1468.2295    12210.744 
   99050    296.47558    246.57203    -3052.401   -2611.4161    1685.0414    12217.722 
   99100    308.00051    247.04497   -3068.1658   -2610.0384    1133.9593    12225.432 
   99150    319.20839    247.50431   -3083.4772   -2608.6789    614.29883    12233.615 
   99200      302.036    246.87442   -3062.4807    -2613.225    968.01004    12242.028 
   99250    315.12975     247.2861   -3076.2034   -2607.4717    380.25629    12250.759 
   99300     315.0616    247.28679   -3076.2263   -2607.5961    300.72788    12259.569 
   99350     301.2494    246.90588   -3063.5292   -2615.4435    624.45843    12268.413 
   99400    306.94204    247.16655   -3072.2185   -2615.6655    350.57489    12277.406 
   99450    296.82165    246.83028   -3061.0094   -2619.5097    598.52521    12286.472 
   99500    292.16082    246.66475   -3055.4918   -2620.9247    610.97055     12295.72 
   99550    298.44885    246.87867   -3062.6224   -2618.7024     254.2343    12305.125 
   99600    306.87158    247.16164   -3072.0546   -2615.6064   -144.39536    12314.503 
   99650    300.56313    247.05595   -3068.5318   -2621.4669   -147.87068    12323.672 
   99700    293.58105    246.82601    -3060.867   -2624.1874    40.416802    12332.604 
   99750    292.69504    246.74649   -3058.2165   -2622.8548    14.727202    12341.398 
   99800     295.0826    246.78851    -3059.617    -2620.704   -250.62056    12350.028 
   99850      296.829    246.90717   -3063.5724   -2622.0618   -450.07148    12358.359 
   99900    285.56458    246.52998   -3050.9994   -2626.2437   -198.51898    12366.324 
   99950    303.78443    247.25214   -3075.0712   -2623.2149   -919.38818    12373.956 
  100000    302.23105    247.20368   -3073.4559   -2623.9101   -964.81323    12380.951 
Loop time of 27.3213 on 1 procs for 100000 steps with 500 atoms

Performance: 316.237 ns/day, 0.076 hours/ns, 3660.146 timesteps/s
99.7% CPU use with 1 MPI tasks x 1 OpenMP threads

MPI task timing breakdown:
Section |  min time  |  avg time  |  max time  |%varavg| %total
---------------------------------------------------------------
Pair    | 21.867     | 21.867     | 21.867     |   0.0 | 80.04
Bond    | 0.0068953  | 0.0068953  | 0.0068953  |   0.0 |  0.03
Neigh   | 0.53856    | 0.53856    | 0.53856    |   0.0 |  1.97
Comm    | 0.78119    | 0.78119    | 0.78119    |   0.0 |  2.86
Output  | 0.018618   | 0.018618   | 0.018618   |   0.0 |  0.07
Modify  | 2.7587     | 2.7587     | 2.7587     |   0.0 | 10.10
Other   |            | 1.35       |            |       |  4.94

Nlocal:    500 ave 500 max 500 min
Histogram: 1 0 0 0 0 0 0 0 0 0
Nghost:    1579 ave 1579 max 1579 min
Histogram: 1 0 0 0 0 0 0 0 0 0
Neighs:    14319 ave 14319 max 14319 min
Histogram: 1 0 0 0 0 0 0 0 0 0

Total # of neighbors = 14319
Ave neighs/atom = 28.638
Ave special neighs/atom = 0
Neighbor list builds = 648
Dangerous builds = 0

write_data      ${walker}/final_restart_file
write_data      13/final_restart_file

quit
