LAMMPS (19 May 2017)
Processor partition = 13
  using 1 OpenMP thread(s) per MPI task
# gREM variables
variable        lambda world 1000 1005 1010 1015 1020 1025 1030 1035 1040 1045 1050 1055 1060 1065 1070 1075
variable        walker world 0 1 2 3 4 5 6 7 8 9 10 11 12 13 14 15
variable        replica world 2 3 4 6 13 0 1 7 11 14 9 8 5 10 12 15

variable        T0 equal 300.0
variable        press equal 0.0

units           real
atom_style      full
pair_style      lj/cut 5.0

# LJ particles
read_data       ${walker}/restart_file
read_data       13/restart_file
  orthogonal box = (0.901325 0.901325 0.901325) to (24.0987 24.0987 24.0987)
  1 by 1 by 1 MPI processor grid
  reading atoms ...
  500 atoms
  reading velocities ...
  500 velocities
  0 = max # of 1-2 neighbors
  0 = max # of 1-3 neighbors
  0 = max # of 1-4 neighbors
  1 = max # of special neighbors

#dump            dump all xyz 1000 ${walker}/dump.xyz

fix             fxnpt all npt temp ${T0} ${T0} 1000.0 iso ${press} ${press} 10000.0
fix             fxnpt all npt temp 300 ${T0} 1000.0 iso ${press} ${press} 10000.0
fix             fxnpt all npt temp 300 300 1000.0 iso ${press} ${press} 10000.0
fix             fxnpt all npt temp 300 300 1000.0 iso 0 ${press} 10000.0
fix             fxnpt all npt temp 300 300 1000.0 iso 0 0 10000.0
fix             fxgREM all grem ${lambda} -.03 -30000 fxnpt
fix             fxgREM all grem 1065 -.03 -30000 fxnpt
thermo_modify   press fxgREM_press

thermo          50
thermo_style    custom step temp f_fxgREM pe etotal press vol
WARNING: New thermo_style command, previous thermo_modify settings will be lost (../output.cpp:705)
timestep        1.0

temper/grem     100000 1000 ${lambda} fxgREM fxnpt 10294 98392 ${walker}
temper/grem     100000 1000 1065 fxgREM fxnpt 10294 98392 ${walker}
temper/grem     100000 1000 1065 fxgREM fxnpt 10294 98392 13
Neighbor list info ...
  update every 1 steps, delay 10 steps, check yes
  max neighbors/atom: 2000, page size: 100000
  master list distance cutoff = 7
  ghost atom cutoff = 7
  binsize = 3.5, bins = 7 7 7
  1 neighbor lists, perpetual/occasional/extra = 1 0 0
  (1) pair lj/cut, perpetual
      attributes: half, newton on
      pair build: half/bin/newton
      stencil: half/bin/3d/newton
      bin: standard
Per MPI rank memory allocation (min/avg/max) = 5.724 | 5.724 | 5.724 Mbytes
Step Temp f_fxgREM PotEng TotEng Press Volume 
       0    292.93587    256.50342    -3050.114   -2614.3941   -1321.5444    12482.889 
      50    283.99213    256.19707   -3039.9022   -2617.4854   -1042.4854    12482.466 
     100    284.59572    256.19347   -3039.7822   -2616.4676   -1005.5529    12481.301 
     150    286.90985     256.2013   -3040.0433   -2613.2867   -1048.4522    12479.431 
     200    284.21811    256.07939   -3035.9796   -2613.2267   -950.42511    12476.843 
     250    279.84734    255.88707   -3029.5691   -2613.3174   -734.68666    12473.578 
     300    280.82888    255.95405   -3031.8015   -2614.0899   -691.95742    12469.761 
     350     290.0686     256.2376   -3041.2533   -2609.7983   -856.09958    12465.405 
     400    278.25402    255.92963   -3030.9877    -2617.106   -400.59411    12460.474 
     450    279.31706    255.96619   -3032.2064   -2616.7434   -379.41658    12455.162 
     500    294.25054    256.42486   -3047.4954     -2609.82   -781.52218    12449.473 
     550    287.44955    256.17114   -3039.0379   -2611.4785   -449.89344     12443.26 
     600    282.71338     255.9659   -3032.1965   -2611.6818   -163.71473     12436.66 
     650    294.09711    256.36333   -3045.4445   -2607.9973   -525.22604    12429.809 
     700    299.68924    256.53808   -3051.2694   -2605.5044   -682.95387    12422.551 
     750     286.8719    255.96668   -3032.2226   -2605.5224   -102.82384    12414.817 
     800    282.52488    255.86565   -3028.8551   -2608.6208    188.47739    12406.868 
     850    286.82608    255.97934   -3032.6446   -2606.0125     161.3852    12398.903 
     900     300.0993    256.47917   -3049.3056   -2602.9306   -83.128047    12390.887 
     950    286.49771    255.85474   -3028.4912   -2602.3475    616.23235    12382.762 
    1000    302.88825    256.37903   -3045.9678   -2595.4445    243.10916    12374.781 
    1050    305.86013    256.50229   -3050.0765   -2595.1327    154.16313    12366.827 
    1100    304.12237     256.4326   -3047.7534   -2595.3944    267.63009    12358.843 
    1150    312.06973    256.71018   -3057.0061    -2592.826    110.44573    12350.866 
    1200    299.82057    256.23209   -3041.0698   -2595.1095    623.66443    12342.864 
    1250    303.36609    256.27142   -3042.3806   -2591.1465    649.35079    12335.054 
    1300    306.73093    256.32931   -3044.3102   -2588.0712    578.17142    12327.475 
    1350     312.1871    256.66339   -3055.4462   -2591.0916    501.70205    12320.093 
    1400    309.55626    256.46333   -3048.7778   -2588.3363    910.08792    12312.895 
    1450     296.3619    255.95856    -3031.952   -2591.1362     1464.843    12306.073 
    1500    305.55614    256.28084   -3042.6946    -2588.203    1138.5779    12299.894 
    1550    305.98194    256.24412   -3041.4708   -2586.3458     1192.992    12294.257 
    1600    302.90751    256.09238   -3036.4128   -2585.8609      1386.95    12289.158 
    1650    318.73482    256.71937   -3057.3123   -2583.2184    893.76665    12284.655 
    1700    307.80828    256.21989    -3040.663   -2582.8215    1336.4987    12280.565 
    1750    301.40412    255.97114   -3032.3713   -2584.0555    1723.2567    12277.065 
    1800    297.48214    255.88927   -3029.6423   -2587.1601    1927.6485    12274.399 
    1850     307.1604    256.29928   -3043.3093   -2586.4315    1607.0408    12272.634 
    1900    315.81512    256.52738   -3050.9125   -2581.1615    1305.7971    12271.616 
    1950    313.23778    256.55183   -3051.7276   -2585.8101    1231.8698    12271.185 
    2000    311.53489    256.41946   -3047.3153   -2583.9308    1324.1306    12271.323 
    2050    318.12408    256.67369   -3055.7896   -2582.6041    1255.2977     12272.03 
    2100    300.89157    256.01903   -3033.9677   -2586.4143    1820.8621    12273.322 
    2150    307.00474    256.24366   -3041.4553    -2584.809    1569.9699    12275.447 
    2200    315.50121    256.45778   -3048.5927   -2579.3086     1239.479    12278.316 
    2250    317.15609    256.49283   -3049.7609   -2578.0152    1079.0828    12281.732 
    2300    310.18702    256.33191   -3044.3969   -2583.0172    1257.2912    12285.616 
    2350    311.79643     256.3542   -3045.1401   -2581.3666    1194.7659    12290.043 
    2400    307.30443    256.16894   -3038.9646   -2581.8726    1357.4751    12295.014 
    2450    299.45861    255.97548    -3032.516    -2587.094    1558.6843    12300.604 
    2500     313.5224    256.50638   -3050.2126   -2583.8718    955.03638    12306.864 
    2550     306.1379    256.19663   -3039.8878   -2584.5309    1043.8447    12313.563 
    2600    303.94223    256.03028   -3034.3425   -2582.2515    1081.9653    12320.717 
    2650    315.23878    256.51608   -3050.5359   -2581.6421    659.99882    12328.304 
    2700    315.30413    256.53987   -3051.3291   -2582.3381    510.88565    12336.142 
    2750    311.24646    256.41935   -3047.3115    -2584.356    424.06538    12344.126 
    2800    301.30644    256.04023   -3034.6743   -2586.5038     567.4369    12352.232 
    2850    312.46835    256.53555   -3051.1849   -2586.4119    111.34863    12360.475 
    2900    305.12949    256.23171   -3041.0571   -2587.2001    327.33045    12368.681 
    2950    311.78043    256.61927   -3053.9758   -2590.2261   -70.605964    12376.906 
    3000    303.06878    256.22341   -3040.7804   -2589.9886    58.919445    12385.006 
    3050    295.34144    255.88134   -3029.3781   -2590.0801    357.67164    12393.015 
    3100    294.97637    255.86558   -3028.8527   -2590.0977    353.61524    12401.081 
    3150    299.00566    256.01512   -3033.8375   -2589.0892    16.618326    12409.197 
    3200    304.39722     256.2265   -3040.8832   -2588.1154   -320.63397    12417.173 
    3250     293.7909     255.7769   -3025.8966   -2588.9049    17.255516    12424.882 
    3300    295.80139    255.86951   -3028.9838   -2589.0016   -68.861925    12432.443 
    3350    294.00223    255.84739   -3028.2462   -2590.9402   -91.051931    12439.824 
    3400    289.54999    255.78179   -3026.0598   -2595.3762   -22.073249    12447.022 
    3450    279.97882    255.36596   -3012.1988   -2595.7516     250.1201    12454.095 
    3500    293.93793    255.81335   -3027.1116   -2589.9012   -306.60217    12461.125 
    3550    293.11726     255.7317   -3024.3899   -2588.4002    -313.9368    12467.874 
    3600    288.00218    255.51752   -3017.2507   -2588.8693   -128.12756    12474.315 
    3650    297.12184     255.8622   -3028.7399   -2586.7937   -584.99233      12480.5 
    3700    297.93088    255.89331   -3029.7769   -2586.6273   -775.84575    12486.232 
    3750    300.53087     255.9054   -3030.1801   -2583.1633   -825.73879    12491.382 
    3800    295.79174    255.79647   -3026.5491   -2586.5813   -703.60546    12495.925 
    3850    288.83326    255.51237   -3017.0792   -2587.4616   -477.62309     12499.93 
    3900     293.5795    255.68372   -3022.7907   -2586.1134   -589.31761    12503.509 
    3950    286.82296    255.35715   -3011.9051   -2585.2776   -261.33697    12506.635 
    4000    277.28156    254.98725   -2999.5749   -2587.1396    101.94579    12509.479 
    4050    298.41551    250.82185   -3027.3951   -2583.5246    -660.9122    12512.182 
    4100    300.83735    250.86357   -3028.7855   -2581.3128   -748.66544    12514.395 
    4150     285.0177    250.26923   -3008.9743   -2585.0321    -205.0883     12516.06 
    4200    296.20194    250.69948   -3023.3161   -2582.7382   -613.70362    12517.405 
    4250    294.72049    250.59301    -3019.767   -2581.3927   -627.60727    12518.284 
    4300     283.8926    250.29213   -3009.7375   -2587.4688   -273.10083    12518.659 
    4350     277.7947    250.03535   -3001.1783   -2587.9798   -99.799328    12518.741 
    4400    291.24606    250.51819   -3017.2728   -2584.0664   -616.66986    12518.575 
    4450    293.09966    250.54338   -3018.1128   -2582.1493    -704.7369    12517.932 
    4500    300.08271    250.73873   -3024.6244   -2578.2741   -813.02569    12516.727 
    4550    292.46219    250.46047    -3015.349   -2580.3337   -546.89174     12514.94 
    4600       299.05    250.74644   -3024.8814   -2580.0672   -658.59461    12512.657 
    4650    284.99441    250.14035   -3004.6782   -2580.7707   -66.291612    12509.894 
    4700    288.80052    250.21365   -3007.1216   -2577.5527   -155.03039    12506.894 
    4750    296.87422    250.41959   -3013.9862   -2572.4083   -346.88461    12503.663 
    4800    303.22889    250.69866   -3023.2887   -2572.2587   -483.48719    12500.079 
    4850    303.63509    250.65364   -3021.7881   -2570.1539   -501.55718    12496.077 
    4900    308.42216    250.77682    -3025.894   -2567.1394   -604.79889    12491.616 
    4950    298.23457    250.40628   -3013.5427   -2569.9414   -149.40637    12486.702 
    5000    293.45114    250.25265   -3008.4218   -2571.9355    107.38049    12481.553 
    5050    305.84072    255.73458   -3024.4862   -2569.5713   -180.18897     12476.28 
    5100    298.89976    255.52537   -3017.5125   -2572.9217    145.55893    12470.826 
    5150    299.71006    255.55526   -3018.5086   -2572.7126    190.17043    12465.322 
    5200    302.70396    255.63653   -3021.2178   -2570.9686    88.879951    12459.785 
    5250    303.50519     255.5365   -3017.8834   -2566.4424    118.70053    12454.183 
    5300    295.48763    255.19641   -3006.5471   -2567.0316    498.76988    12448.547 
    5350    293.25458    255.13471   -3004.4902   -2568.2962    760.48627    12443.051 
    5400    305.69173    255.54973   -3018.3244   -2563.6311    444.25103    12437.837 
    5450    311.46284    255.72454   -3024.1512   -2560.8739    239.58772    12432.762 
    5500    306.89692    255.61887   -3020.6291   -2564.1431    424.37524    12427.703 
    5550     311.6739    255.74037   -3024.6789   -2561.0876    360.83349    12422.744 
    5600    320.88282    255.97758   -3032.5859    -2555.297     247.3049    12417.844 
    5650    299.50526    255.12216   -3004.0721   -2558.5807     1033.832    12413.002 
    5700    300.02666    255.09999   -3003.3329    -2557.066    1044.1605    12408.556 
    5750    317.27319    255.77688   -3025.8958    -2553.976    484.69055    12404.536 
    5800    329.56841    256.25025    -3041.675    -2551.467    91.059675    12400.667 
    5850    313.70774     255.6889   -3022.9632   -2556.3467    668.87543    12396.753 
    5900    303.49281    255.31423   -3010.4744   -2559.0518    1092.0758    12393.057 
    5950    298.65667    255.08579   -3002.8597   -2558.6305    1369.7797     12389.84 
    6000    311.95749    255.55446   -3018.4819   -2554.4688    992.12567    12387.212 
    6050    306.14942    260.34595   -3011.5318   -2556.1578    1110.9587    12385.055 
    6100     312.3991    260.66564   -3022.1879   -2557.5179    1006.3471    12383.379 
    6150    306.31942    260.37147   -3012.3824   -2556.7555    1405.0992    12382.192 
    6200    323.13576    261.01466   -3033.8219   -2553.1819     846.0306    12381.613 
    6250    316.12187    260.74569   -3024.8564   -2554.6491    923.22878    12381.421 
    6300    311.02087    260.57469   -3019.1563   -2556.5363    1036.7147      12381.6 
    6350    319.77565    260.92791   -3030.9304   -2555.2884    747.71199    12382.221 
    6400    305.56171    260.32701   -3010.9003   -2556.4004    1230.0839    12383.197 
    6450    309.56295    260.48596   -3016.1988   -2555.7474    1139.4234    12384.676 
    6500    303.92617    260.36476   -3012.1585   -2560.0914     1259.882    12386.687 
    6550    303.86806    260.35083   -3011.6944   -2559.7136    1103.7349    12389.272 
    6600    310.27752    260.71591   -3023.8638   -2562.3495    782.61885    12392.342 
    6650    296.40282    260.14397    -3004.799   -2563.9223    1243.6047    12395.802 
    6700    311.46944    260.73815   -3024.6049   -2561.3177    638.54651    12399.783 
    6750    313.52497    260.86432   -3028.8106    -2562.466    372.36395    12404.025 
    6800    310.24629     260.8012   -3026.7067   -2565.2388    432.95225    12408.344 
    6850    294.02285    260.06861   -3002.2869   -2564.9502    1022.7729    12412.811 
    6900    292.41459    260.01232   -3000.4107   -2565.4662    997.85816    12417.696 
    6950    296.18492    260.19278    -3006.426   -2565.8734    781.93787    12423.023 
    7000    297.41794    260.28955   -3009.6518   -2567.2651    628.94428    12428.673 
    7050    297.97828    265.42177   -3014.0589   -2570.8387      479.796    12434.551 
    7100    290.99138    265.22893    -3007.631   -2574.8034    513.46277     12440.61 
    7150    298.68197    265.56993   -3018.9976   -2574.7308    115.19157    12446.828 
    7200    284.13244    265.05341   -3001.7803   -2579.1548    449.51306     12453.07 
    7250    299.47471     265.6303   -3021.0099    -2575.564   -106.19818    12459.393 
    7300    285.72762    265.28805   -3009.6016   -2584.6034    232.26432    12465.607 
    7350    282.09205    265.21388   -3007.1295    -2587.539    253.77983    12471.821 
    7400    279.80381     265.3326   -3011.0868   -2594.8998    112.77518    12478.073 
    7450    278.95694    265.44234   -3014.7445   -2599.8172   -35.780895    12484.285 
    7500    281.69592    265.68954   -3022.9848   -2603.9835   -328.45129    12490.367 
    7550     275.6783     265.4189   -3013.9633   -2603.9127   -283.96026    12496.183 
    7600    277.93106     265.5541   -3018.4701   -2605.0687   -562.41712    12501.701 
    7650    271.55416    265.43906   -3014.6352    -2610.719   -581.52178    12506.817 
    7700    285.55389     266.0049   -3033.4966   -2608.7568   -1063.4867     12511.46 
    7750    275.45335    265.64987   -3021.6625   -2611.9465   -697.83878    12515.452 
    7800     268.5328    265.36051   -3012.0171   -2612.5949   -432.42108    12518.929 
    7850    266.71415    265.32289   -3010.7629   -2614.0458   -580.13851    12522.044 
    7900    285.61423    266.05356   -3035.1186   -2610.2891   -1425.8843    12524.672 
    7950    282.71763    265.93435   -3031.1449   -2610.6239   -1425.7245    12526.437 
    8000     267.2892    265.38726   -3012.9086   -2615.3362   -878.01461     12527.31 
    8050     271.3897    260.59917   -3019.9724   -2616.3007   -931.11639    12527.536 
    8100    269.72829    260.55148   -3018.3826   -2617.1822   -893.50582    12527.131 
    8150    273.85613    260.57766   -3019.2554   -2611.9151   -967.80708    12526.092 
    8200    280.63359     260.8883   -3029.6101   -2612.1889   -1123.6849    12524.377 
    8250     271.2255    260.47017   -3015.6724    -2612.245   -788.44685    12521.934 
    8300    278.56243      260.733   -3024.4333   -2610.0928   -1092.3304    12518.899 
    8350    283.14579    260.95322   -3031.7739    -2610.616   -1216.7879    12515.152 
    8400    276.81115     260.7045   -3023.4833   -2611.7477   -868.08263    12510.628 
    8450    281.03811    260.87833   -3029.2775   -2611.2546     -933.164    12505.472 
    8500    284.65833    261.04206   -3034.7352   -2611.3276   -993.76982    12499.669 
    8550    272.73119    260.50566   -3016.8553   -2611.1884   -398.63712    12493.233 
    8600    273.49898    260.51316   -3017.1054   -2610.2964   -244.80832    12486.443 
    8650     278.7117    260.69682   -3023.2274   -2608.6649   -356.12803    12479.401 
    8700    280.26627    260.71192   -3023.7308    -2606.856   -366.09822    12472.065 
    8750    287.60365     260.9136   -3030.4534   -2602.6648   -411.05308    12464.396 
    8800    278.24309    260.54463   -3018.1545    -2604.289    43.573693    12456.431 
    8850     299.6391    261.33126   -3044.3752   -2598.6848    -564.2506    12448.335 
    8900    300.15553    261.26437   -3042.1458   -2595.6872   -429.62012    12439.864 
    8950    289.37453    260.89467   -3029.8223   -2599.3996      39.9282    12431.067 
    9000    294.05561    260.99482   -3033.1606   -2595.7752    8.2737729    12422.166 
    9050    279.97926    260.48567   -3016.1889    -2599.741    632.34367    12413.216 
    9100    287.72198    260.68277   -3022.7591   -2594.7945    518.01312     12404.48 
    9150    310.95151    261.52459   -3050.8197   -2588.3029    -194.8455    12395.896 
    9200    304.12552    261.19808   -3039.9359   -2587.5722    184.07631    12387.161 
    9250    297.47179    260.97584   -3032.5281   -2590.0614    474.68784    12378.424 
    9300    311.52702    261.48081   -3049.3605   -2585.9876   -13.645431    12369.818 
    9350    310.85023    261.38212   -3046.0707   -2583.7045    148.91842    12361.127 
    9400    294.11859    260.78854   -3026.2846   -2588.8055    949.96021     12352.45 
    9450    307.50731    261.42398    -3047.466   -2590.0722    669.62022    12344.152 
    9500    298.89148    260.99726   -3033.2421   -2588.6637    1117.4499    12336.181 
    9550    308.19699     261.2482   -3041.6065   -2583.1868    967.78451    12328.689 
    9600    314.52665    261.46499   -3048.8329   -2580.9983     911.4893    12321.655 
    9650    294.93146    260.65778   -3021.9261   -2583.2379    1771.1234    12315.067 
    9700    299.91614    260.84867   -3028.2889   -2582.1863    1586.7103    12309.299 
    9750    315.06826    261.40069   -3046.6898   -2578.0497    949.95948    12304.286 
    9800    317.09704    261.56105    -3052.035   -2580.3771     935.3581    12299.718 
    9850    305.70244    261.04142   -3034.7141   -2580.0049    1437.5245    12295.602 
    9900    311.76908    261.25392   -3041.7973   -2578.0645    1329.4651    12292.123 
    9950    303.95388    260.93728   -3031.2426   -2579.1342    1653.6924      12289.3 
   10000    308.01811    261.07203   -3035.7344   -2577.5808    1626.6075    12287.248 
   10050    306.36523    255.98407   -3032.8025   -2577.1074    1756.0555     12285.99 
   10100    321.56735    256.59204   -3053.0681    -2574.761    1249.1615    12285.539 
   10150    323.52008     256.6398   -3054.6599   -2573.4483    1226.5254    12285.685 
   10200    325.20827    256.61972   -3053.9907    -2570.268    1127.6028    12286.353 
   10250    329.27853    256.76719   -3058.9065   -2569.1296    815.75805     12287.48 
   10300    320.73712    256.48581    -3049.527   -2572.4549    1017.4474    12288.946 
   10350    309.41856    256.15042   -3038.3473   -2578.1106    1389.9094     12290.85 
   10400    303.44577    255.95048   -3031.6827   -2580.3301    1575.8913    12293.359 
   10450    310.99531    256.20426   -3040.1421   -2577.5601    1269.9035    12296.549 
   10500    307.48611    256.00712   -3033.5706   -2576.2083    1236.6841    12300.323 
   10550    304.66267    255.98778    -3032.926   -2579.7634    1253.4603    12304.646 
   10600    301.97784    255.87226   -3029.0753   -2579.9061    1304.5796    12309.525 
   10650    308.39825    256.24237   -3041.4125   -2582.6934    924.47888    12314.965 
   10700    306.18231    256.22593   -3040.8644   -2585.4415    879.34765    12320.784 
   10750    299.64877    255.98722   -3032.9072   -2587.2024    1034.4951    12326.958 
   10800    297.07857    255.86022   -3028.6739    -2586.792    1020.7782    12333.573 
   10850    308.69198    256.41931   -3047.3104   -2588.1545    423.67902    12340.567 
   10900    305.36748     256.2563   -3041.8765   -2587.6656    378.41963    12347.683 
   10950    316.17483    256.61817   -3053.9389   -2583.6528     11.57595    12354.834 
   11000    312.89024    256.50832   -3050.2773   -2584.8768   -33.432664    12361.875 
   11050    314.14535    256.59835   -3053.2783    -2586.011   -255.66651    12368.718 
   11100    301.14046     256.1111   -3037.0366    -2589.113    97.176079    12375.312 
   11150    305.06137    256.32174   -3044.0582   -2590.3025    27.255597    12381.772 
   11200    288.67687    255.72368   -3024.1227   -2594.7377    518.51601    12388.148 
   11250    301.21348     256.2683   -3042.2766   -2594.2444   -73.898686    12394.613 
   11300    309.05431    256.64731   -3054.9103   -2595.2154   -434.67502    12400.894 
   11350    288.61055    255.89282   -3029.7608   -2600.4745    235.34554    12406.839 
   11400    291.60538    256.06107    -3035.369   -2601.6281    107.27938    12412.721 
   11450    295.46736     256.2216   -3040.7199   -2601.2346   -66.104189    12418.506 
   11500    286.03409    255.92846   -3030.9487   -2605.4947    74.701994    12424.138 
   11550    288.73629    256.00787   -3033.5956   -2604.1223   -156.20879    12429.646 
   11600    290.32505    256.05814   -3035.2713   -2603.4348   -279.60574    12434.915 
   11650    282.70519    255.82637   -3027.5455    -2607.043   -64.484532    12439.902 
   11700    273.36106    255.45879   -3015.2931   -2608.6892    197.66925    12444.716 
   11750    285.18233    255.95443   -3031.8144   -2607.6273   -351.37059    12449.458 
   11800    292.94991    256.25356   -3041.7854   -2606.0446   -650.63588    12453.867 
   11850    272.12391    255.38727   -3012.9092   -2608.1455   -21.228837    12457.829 
   11900    295.35856       256.32   -3044.0001   -2604.6766    -930.2587    12461.533 
   11950    296.27195    256.33844   -3044.6146   -2603.9325   -1016.8282    12464.623 
   12000    294.60479    256.33718   -3044.5727   -2606.3704   -930.26292    12466.996 
   12050    302.02404    261.63643   -3054.5478   -2605.3099   -1228.2239    12468.688 
   12100    292.22217    261.24291   -3041.4305   -2606.7721   -937.93716    12469.591 
   12150    284.12408    260.93836   -3031.2785   -2608.6655   -687.68435    12469.849 
   12200    287.52541    261.02248   -3034.0827   -2606.4104   -792.07151    12469.585 
   12250    274.49404    260.49032    -3016.344   -2608.0549   -310.97868    12468.786 
   12300     278.3764    260.62578   -3020.8592   -2606.7954   -408.49537    12467.669 
   12350    282.68139    260.77354   -3025.7846   -2605.3174    -564.9789    12466.213 
   12400    286.54626    260.92495   -3030.8316   -2604.6157   -668.01266    12464.322 
   12450    286.26941    260.91676   -3030.5586   -2604.7546   -634.89502    12461.961 
   12500    275.98235    260.55291   -3018.4303   -2607.9275    -214.1425     12459.16 
   12550    272.98829    260.49142   -3016.3807   -2610.3313    35.064397    12456.113 
   12600    276.79071    260.52567   -3017.5223    -2605.817    8.9063007    12452.982 
   12650     285.9744    260.89739   -3029.9132   -2604.5479   -327.17345    12449.725 
   12700    276.68463    260.47775   -3015.9249   -2604.3775    82.244977     12446.23 
   12750    295.48453    261.18968   -3039.6561   -2600.1453   -424.66469    12442.608 
   12800    279.98948    260.51947   -3017.3156   -2600.8525     126.3499    12438.723 
   12850     297.0937    261.11758   -3037.2527   -2595.3483   -292.79703    12434.726 
   12900    298.65367      261.092   -3036.3999   -2592.1752   -119.03753      12430.5 
   12950    300.31889    261.11562   -3037.1873   -2590.4857     8.387709    12426.083 
   13000    291.44422    260.69291    -3023.097   -2589.5958    349.73459    12421.591 
   13050    287.38221     255.5896   -3019.6533   -2592.1941    434.83572    12417.158 
   13100    291.08846    255.70405   -3023.4683   -2590.4963    303.33908    12412.841 
   13150    306.30444    256.18956   -3039.6521   -2584.0474    -134.7088    12408.574 
   13200     311.0839    256.37945   -3045.9815   -2583.2678   -191.49343     12404.13 
   13250     305.6202    256.03151   -3034.3835   -2579.7967    152.89058    12399.477 
   13300     300.3585    255.89598   -3029.8661   -2583.1056    338.51142    12394.767 
   13350    298.46461    255.80846   -3026.9486   -2583.0051     476.3452    12390.144 
   13400     311.1921    256.19962   -3039.9874   -2577.1127    243.75955    12385.651 
   13450    300.67784    255.66315   -3022.1049   -2574.8694    728.61647    12381.232 
   13500    298.52577    255.57928   -3019.3094   -2575.2749    875.93153    12377.077 
   13550    304.68812    255.83501   -3027.8337   -2574.6332    707.98852    12373.277 
   13600    316.70006    256.21097   -3040.3656   -2569.2983    334.87244    12369.741 
   13650    310.72194    255.88479   -3029.4929   -2567.3175    631.67885     12366.31 
   13700    311.83259    255.91349   -3030.4495   -2566.6222    741.02796    12363.091 
   13750    312.17253     255.9535   -3031.7835   -2567.4505    781.61753    12360.166 
   13800     323.4397    256.33232   -3044.4108   -2563.3188    414.80778    12357.512 
   13850    329.75987    256.50622   -3050.2073   -2559.7144    254.52441    12354.951 
   13900    323.97683    256.22159   -3040.7197   -2558.8287    582.88169    12352.439 
   13950    314.03582    255.85847   -3028.6157   -2561.5113    1038.3609    12350.127 
   14000    302.49585    255.49242   -3016.4141   -2566.4745    1452.9274    12348.272 
   14050    310.14096    260.69296   -3023.0987   -2561.7876    1295.8824    12347.062 
   14100    307.59814    260.70507   -3023.5024   -2565.9735    1364.2104    12346.469 
   14150    308.34657    260.73965   -3024.6549   -2566.0127    1331.1734    12346.518 
   14200    321.71772    261.23448   -3041.1492   -2562.6185    839.37516    12347.148 
   14250    312.13815     260.8532     -3028.44   -2564.1582    1047.7118    12348.171 
   14300     317.1704    261.02124   -3034.0415   -2562.2746    769.47928    12349.618 
   14350    318.65802    261.08957    -3036.319   -2562.3394    628.41068    12351.386 
   14400    311.21853      260.869   -3028.9667   -2566.0527    889.92274    12353.391 
   14450    310.69713    260.91815    -3030.605   -2568.4666    1024.6558    12355.767 
   14500    317.80907    261.18228   -3039.4094   -2566.6925    781.89474    12358.577 
   14550    320.08781    261.18263    -3039.421   -2563.3147    598.89738    12361.681 
   14600    320.69807    261.29493   -3043.1644   -2566.1503    468.73878    12364.966 
   14650    300.94186    260.55953   -3018.6509   -2571.0227    1093.5044    12368.426 
   14700    301.80383    260.65943    -3021.981   -2573.0707    1043.9733    12372.319 
   14750    303.19517     260.7281   -3024.2699   -2573.2901    934.72672    12376.673 
   14800    296.21022    260.51144   -3017.0479   -2576.4577    1129.4875    12381.415 
   14850    295.17484    260.43342   -3014.4475   -2575.3973    1128.8752    12386.642 
   14900     300.9959    260.68683   -3022.8944   -2575.1858    752.37066    12392.357 
   14950    300.43203    260.65608   -3021.8694   -2574.9995    554.34242    12398.371 
   15000    305.05285     260.8141   -3027.1367   -2573.3937    290.29544    12404.542 
   15050    292.36169    260.36402   -3012.1339   -2577.2681    626.16006    12410.784 
   15100    312.73369    261.16339   -3038.7795   -2573.6119   -138.72182    12417.164 
   15150    299.65784    260.76859   -3025.6198   -2579.9015    105.01565    12423.382 
   15200    297.33036    260.63723   -3021.2411   -2578.9848    176.96019    12429.494 
   15250    285.16216    260.14734   -3004.9114   -2580.7543    550.15919    12435.602 
   15300    307.23109    260.97406   -3032.4688   -2575.4858   -257.69653    12441.798 
   15350     302.5894    260.83635   -3027.8783   -2577.7995   -198.88794    12447.757 
   15400    298.64113    260.70669   -3023.5564   -2579.3503   -134.75359    12453.455 
   15450     297.6098    260.65017   -3021.6725   -2579.0004   -181.03666    12458.945 
   15500    289.86491    260.36033    -3012.011   -2580.8589   -38.412147    12464.206 
   15550    300.95726      260.815   -3027.1667   -2579.5156   -462.73317    12469.263 
   15600    290.50896    260.46162   -3015.3872   -2583.2771   -79.570668    12473.971 
   15650    287.56194    260.29537   -3009.8456    -2582.119    35.217962    12478.485 
   15700    294.61922    260.64073   -3021.3576   -2583.1338   -372.20232    12482.852 
   15750    298.54089    260.75696    -3025.232   -2581.1751   -613.60528    12486.872 
   15800    296.54472    260.73042   -3024.3473   -2583.2595    -609.0041    12490.412 
   15850    289.30171    260.39721   -3013.2403   -2582.9259   -294.56982    12493.502 
   15900    289.50916    260.39082   -3013.0274   -2582.4045   -329.65581    12496.269 
   15950    302.64326    260.95125   -3031.7082   -2581.5492   -885.74968    12498.672 
   16000    293.92814    260.64857   -3021.6189   -2584.4231   -721.43707    12500.484 
   16050    298.98993    255.83297   -3027.7657   -2583.0408   -874.21535    12501.706 
   16100    283.18642    255.12885   -3004.2951   -2583.0767    -315.6341    12502.342 
   16150     293.3076    255.50234   -3016.7447   -2580.4719   -589.76589      12502.6 
   16200    290.95388    255.49534   -3016.5112   -2583.7393   -591.35088    12502.415 
   16250    293.24617     255.6676   -3022.2534   -2586.0719   -682.87525     12501.75 
   16300    295.35167    255.76463   -3025.4878   -2586.1746   -723.17677    12500.568 
   16350    289.95764    255.52424   -3017.4746   -2586.1845   -528.82551    12498.867 
   16400    292.95343    255.66064   -3022.0215   -2586.2754   -619.98021    12496.715 
   16450    292.52015    255.64569    -3021.523   -2586.4214   -572.82676    12494.093 
   16500     292.4523    255.63135   -3021.0449   -2586.0443   -562.52775    12491.018 
   16550     301.4926    255.95825   -3031.9417   -2583.4943   -784.87973    12487.495 
   16600    295.69161    255.71246   -3023.7486   -2583.9297   -527.90069    12483.446 
   16650    297.37237    255.77028    -3025.676   -2583.3572   -457.26157    12478.955 
   16700    308.56551    256.26077   -3042.0256   -2583.0577    -750.3878    12474.069 
   16750    305.02508    256.12441   -3037.4803   -2583.7786   -498.26373    12468.677 
   16800    293.50708    255.70758   -3023.5861   -2587.0166    41.522588    12462.919 
   16850    292.77669    255.69954   -3023.3181   -2587.8349    139.40611    12457.063 
   16900    293.27938    255.76804   -3025.6012   -2589.3703    198.76981    12451.187 
   16950     290.9907    255.59363   -3019.7876    -2586.961    348.48888    12445.347 
   17000    297.95487    255.80885   -3026.9618   -2583.7765    246.54813    12439.571 
   17050    282.10787    260.20962   -3006.9873   -2587.3732    889.69486    12433.891 
   17100    294.53481    260.68223   -3022.7412   -2584.6429    512.79289    12428.566 
   17150    297.16734    260.73742   -3024.5806   -2582.5667     358.2082    12423.469 
   17200    304.54617    260.97134   -3032.3779   -2579.3886    110.60125    12418.471 
   17250    308.24125     261.1403     -3038.01   -2579.5245   -5.0717517    12413.476 
   17300    316.68953    261.38767   -3046.2558   -2575.2041   -187.17164    12408.373 
   17350     297.3581    260.64414   -3021.4715   -2579.1738    484.91166    12403.122 
   17400    306.96386    261.03824    -3034.608   -2578.0225    277.77228    12397.999 
   17450    303.54099    260.87488   -3029.1628   -2577.6686     536.4142    12392.979 
   17500    296.64722     260.6863   -3022.8766   -2581.6364    806.62946    12388.183 
   17550    311.03821    261.17579    -3039.193   -2576.5472    442.25136    12383.704 
   17600    289.78522    260.36474   -3012.1581   -2581.1246    1291.5487    12379.472 
   17650    294.26476    260.53306   -3017.7687   -2580.0722    1296.9259    12375.808 
   17700    301.72825    260.67211   -3022.4036   -2573.6057    1133.1251    12372.762 
   17750    301.92836    260.63023   -3021.0076   -2571.9121    1145.8271    12370.263 
   17800    299.49743    260.50511   -3016.8369   -2571.3571    1273.9515    12368.322 
   17850    312.20531    260.96051   -3032.0171   -2567.6354    833.49068    12366.955 
   17900    309.26907     260.7341   -3024.4702   -2564.4559    861.30069    12365.975 
   17950    311.30269    260.86676    -3028.892   -2565.8529    744.56015    12365.344 
   18000    310.26652    260.73071   -3024.3572   -2562.8592    804.69868    12365.039 
   18050    322.14572    266.20673   -3040.2244   -2561.0571    462.10872    12365.022 
   18100    322.64403    266.11287   -3037.0957   -2557.1872    569.82371    12365.191 
   18150     312.1109    265.63354   -3021.1179   -2556.8766    1099.4841    12365.589 
   18200    303.09187    265.27767   -3009.2556   -2558.4294    1574.9468    12366.487 
   18250    310.84385    265.73754   -3024.5847    -2562.228    1252.4342    12368.124 
   18300    320.12591    266.06922   -3035.6408   -2559.4778    836.39173    12370.334 
   18350    312.28168     265.6906     -3023.02   -2558.5247    1082.2738    12372.924 
   18400    300.36789    265.10404   -3003.4679   -2556.6934    1481.2269    12376.008 
   18450    321.70663    265.90119   -3030.0396   -2551.5253     701.9401    12379.712 
   18500     320.5691     265.7962   -3026.5398   -2549.7176    708.69315    12383.741 
   18550     309.9151    265.38625   -3012.8749   -2551.8997    1079.9644    12388.043 
   18600    296.87581    264.86706   -2995.5687   -2553.9884    1556.5424    12392.807 
   18650    307.05065    265.23578   -3007.8594   -2551.1449    1134.9216    12398.274 
   18700    319.68866    265.68425   -3022.8083   -2547.2957     592.5196    12404.239 
   18750    316.07251    265.50145   -3016.7149    -2546.581    682.33389    12410.417 
   18800    314.73282    265.44744   -3014.9147   -2546.7735    744.11571    12416.836 
   18850    316.84522    265.49274   -3016.4246   -2545.1413    691.23062     12423.51 
   18900     307.4399     265.0908   -3003.0265   -2545.7329    912.33088    12430.441 
   18950    303.74275    264.97498   -2999.1661   -2547.3717     819.1869    12437.718 
   19000    301.71601    264.90566   -2996.8553   -2548.0756    759.23369    12445.305 
   19050     296.4382    264.60209   -2986.7362   -2545.8068    966.65036    12453.181 
   19100    286.27004    264.23283   -2974.4278   -2548.6228    1295.7108    12461.453 
   19150    296.95132    264.67733   -2989.2442   -2547.5516    883.51312    12470.254 
   19200     312.7746    265.20678   -3006.8927   -2541.6642    273.21711    12479.386 
   19250    308.35236    265.02865    -3000.955   -2542.3042    282.46127    12488.531 
   19300    305.00064    264.87086   -2995.6954   -2542.0301    250.30516    12497.659 
   19350    311.67884    265.16295   -3005.4318   -2541.8331   -120.22219    12506.729 
   19400    294.29894     264.5245     -2984.15   -2546.4027    419.88637    12515.618 
   19450    301.97207    264.75463   -2991.8209   -2542.6603    278.62787    12524.527 
   19500     300.4968    264.60742   -2986.9141   -2539.9479    370.06341    12533.446 
   19550    301.79952    264.69547   -2989.8491   -2540.9452    189.10004    12542.391 
   19600     315.5794    265.10693   -3003.5644    -2534.164   -456.34922    12551.237 
   19650     321.9557     265.3616   -3012.0533   -2533.1686    -778.7239    12559.644 
   19700    303.81454    264.67313   -2989.1042   -2537.2031   -204.68335    12567.485 
   19750    298.88211    264.50419    -2983.473   -2538.9085   -174.84361    12575.008 
   19800    313.70055    265.09145   -3003.0483   -2536.4425   -763.88325    12582.214 
   19850    294.95487    264.32752   -2977.5841   -2538.8611   -96.060078    12588.887 
   19900    298.73719    264.45507   -2981.8356   -2537.4867   -186.19873     12595.27 
   19950    305.04417    264.69672   -2989.8905   -2536.1605   -489.49067    12601.381 
   20000    300.76169    264.57624   -2985.8747   -2538.5145   -388.14005    12607.068 
   20050    299.26896    259.37435   -2979.1449    -2534.005   -278.86798     12612.36 
   20100    296.53242    259.17116   -2972.3719   -2531.3024   -236.26694    12617.337 
   20150    302.17977    259.45211   -2981.7371   -2532.2676   -487.15285    12621.983 
   20200     293.7234     259.1176   -2970.5866   -2533.6953   -255.36736    12626.213 
   20250    297.56405    259.21696   -2973.8986   -2531.2947   -404.79364    12630.108 
   20300    295.19331    259.24469   -2974.8229   -2535.7453   -466.48195    12633.618 
   20350    292.15182    259.11154   -2970.3847    -2535.831    -386.6321    12636.707 
   20400    302.32611    259.47783   -2982.5943   -2532.9072   -742.10988    12639.386 
   20450    291.64877    259.05875    -2968.625   -2534.8196   -460.50921    12641.536 
   20500    304.39582    259.50223   -2983.4077   -2530.6419   -901.33618    12643.223 
   20550    308.23134    259.55748   -2985.2494   -2526.7787   -1042.6469    12644.277 
   20600     302.1751    259.33029   -2977.6762   -2528.2136   -913.36972    12644.599 
   20650    315.73983     259.9008   -2996.6935   -2527.0544    -1301.707      12644.2 
   20700    306.89804    259.46203   -2982.0675     -2525.58    -821.7026     12642.97 
   20750    302.93973     259.2684   -2975.6132   -2525.0133   -599.12477    12641.121 
   20800    309.44022    259.44713   -2981.5709    -2521.302   -757.97121    12638.786 
   20850    291.24657    258.80855    -2960.285   -2527.0778   -133.69549    12635.961 
   20900    295.44665    259.01544   -2967.1812   -2527.7267   -230.40991    12632.912 
   20950    304.17118    259.34419   -2978.1396    -2525.708   -474.47353    12629.631 
   21000    307.03032    259.45865    -2981.955   -2525.2707   -485.04013    12625.983 
   21050    294.09411    259.04315   -2968.1051   -2530.6624   -47.504992    12621.988 
   21100    308.76825    259.54939   -2984.9798   -2525.7104    -449.5038    12617.824 
   21150    299.65596    259.19326   -2973.1088   -2527.3932   -43.234131    12613.382 
   21200    294.10966    258.97418   -2965.8059     -2528.34    283.43097    12608.819 
   21250    294.54857    258.88521   -2962.8404   -2524.7217    269.84838    12604.341 
   21300    307.21636    259.31333   -2977.1111     -2520.15   -201.63896    12599.926 
   21350    325.32826    260.03279   -3001.0929   -2517.1918   -831.36635    12595.283 
   21400    313.56038    259.63717   -2987.9055   -2521.5082   -421.95131    12590.143 
   21450    303.57335    259.22217   -2974.0724     -2522.53    15.866728    12584.688 
   21500    308.73891    259.47107    -2982.369   -2523.1433    -67.67832    12579.137 
   21550    297.19253    259.02789   -2967.5963    -2525.545    449.98732    12573.525 
   21600       311.27     259.4935   -2983.1166   -2520.1261    149.71654    12568.044 
   21650    326.62788    260.12639   -3004.2131   -2518.3788   -288.21452    12562.566 
   21700    313.39972    259.56381   -2985.4604   -2519.3021    194.01572    12556.917 
   21750    322.04588    259.97581   -2999.1935   -2520.1747   -15.669918    12551.251 
   21800    308.55756    259.41005   -2980.3351   -2521.3791    523.76631     12545.56 
   21850    302.40853    259.16846   -2972.2821   -2522.4723    719.03077    12540.068 
   21900     319.1149    259.80261   -2993.4205   -2518.7612     92.02486    12534.874 
   21950    317.56634    259.67724   -2989.2414   -2516.8856    169.49226    12529.723 
   22000    323.09545     259.9401   -2998.0034   -2517.4234    118.32444    12524.564 
   22050    306.01087    259.36436   -2978.8119   -2523.6439    724.24709    12519.442 
   22100     308.2961    259.52996   -2984.3319   -2525.7649    596.93615    12514.619 
   22150    323.79841    260.01749   -3000.5831   -2518.9575    135.40522     12510.04 
   22200     327.5523    260.14483   -3004.8277   -2517.6184    122.64373    12505.468 
   22250    315.04494    259.72731   -2990.9103   -2522.3049    561.74599    12500.918 
   22300    313.69286    259.74864   -2991.6213   -2525.0269    645.82711    12496.589 
   22350    309.13651    259.69714   -2989.9048   -2530.0876    756.95808    12492.547 
   22400    303.09122    259.46372    -2982.124   -2531.2988    946.85931    12488.871 
   22450    316.70196    260.00864   -3000.2881   -2529.2179    578.67749    12485.619 
   22500    313.13077    259.98156   -2999.3854   -2533.6271    725.25204    12482.652 
   22550     309.7217    259.84187    -2994.729   -2534.0414    813.27237    12479.991 
   22600    307.77655    259.86735   -2995.5782   -2537.7839    854.90602    12477.692 
   22650    296.14951     259.5476     -2984.92   -2544.4201    1220.1099    12475.802 
   22700    314.26637    260.25149    -3008.383   -2540.9356    536.86414     12474.43 
   22750    306.28374    260.00967   -3000.3224   -2544.7485    649.16216     12473.32 
   22800    314.25819    260.32238   -3010.7459   -2543.3106    347.46551    12472.433 
   22850    321.04299    260.59795   -3019.9317   -2542.4046   -2.7883975    12471.624 
   22900    307.75671    260.12947   -3004.3157    -2546.551    430.52255     12470.73 
   22950    293.84502    259.72432   -2990.8106   -2553.7384    912.84625    12469.966 
   23000    303.16798    260.22608    -3007.536   -2556.5966    558.31762    12469.566 
   23050    297.28674    259.96079   -2998.6931   -2556.5016    691.43573    12469.413 
   23100    292.49185    259.78472   -2992.8239   -2557.7644    775.72731    12469.521 
   23150    303.09192    260.28806   -3009.6018   -2558.7756    379.10456    12469.901 
   23200    302.41025    260.26984   -3008.9947   -2559.1823    298.57464    12470.407 
   23250    301.91195    260.20554   -3006.8513   -2557.7802    172.12814    12470.953 
   23300    305.88316    260.43428   -3014.4761   -2559.4981   -40.007382    12471.451 
   23350    300.08167    260.31016   -3010.3385   -2563.9898    84.086515    12471.827 
   23400    295.66808    260.12617   -3004.2055   -2564.4216    160.70099    12472.128 
   23450    304.68232    260.55445   -3018.4818   -2565.2899   -209.79038    12472.355 
   23500    290.07083    260.03412   -3001.1373   -2569.6789    235.54758    12472.388 
   23550    291.25874    260.08954   -3002.9845   -2569.7592    259.50789    12472.398 
   23600    287.20644    260.04919   -3001.6396   -2574.4418    307.42037    12472.447 
   23650     305.1897    260.82007   -3027.3357   -2573.3892    -370.6215    12472.497 
   23700    292.63628    260.28856   -3009.6185   -2574.3442    39.882423    12472.303 
   23750    292.69394    260.25065   -3008.3551    -2572.995    38.855866    12471.985 
   23800    295.52899     260.4607   -3015.3567   -2575.7797   -81.771097    12471.562 
   23850    274.24887    259.59646   -2986.5488   -2578.6244    678.81062    12471.037 
   23900    293.72753    260.36724   -3012.2414   -2575.3439    -17.08267    12470.693 
   23950    293.49784    260.34306   -3011.4353   -2574.8795   -88.657009    12470.272 
   24000    292.65535    260.29344   -3009.7814   -2574.4788   -9.9496822    12469.683 
   24050    291.47667    255.29318   -3009.7726   -2576.2232    66.038564    12468.971 
   24100    291.05892     255.3438   -3011.4599   -2578.5319    86.101199    12468.166 
   24150    306.46087    255.83666   -3027.8886   -2572.0513   -452.54202    12467.263 
   24200    309.27282    255.91538   -3030.5125   -2570.4927    -606.9619    12466.003 
   24250    306.23078    255.82447   -3027.4823   -2571.9872   -434.43071    12464.278 
   24300    295.31485     255.4467   -3014.8901   -2575.6316   -49.207562    12462.192 
   24350    296.89154    255.45626   -3015.2088   -2573.6051   -120.38066    12459.936 
   24400    298.23631    255.49171   -3016.3902   -2572.7863   -79.873362    12457.511 
   24450    304.48995    255.82054   -3027.3512   -2574.4455   -208.38458    12454.908 
   24500    300.53628    255.64346   -3021.4487   -2574.4237   -24.997519    12452.091 
   24550     295.1532    255.49438   -3016.4795   -2577.4615    159.71783    12449.158 
   24600    298.38515    255.73908   -3024.6361   -2580.8108    17.113494    12446.204 
   24650    306.32576    255.97807   -3032.6023   -2576.9659   -215.37574    12443.132 
   24700    298.65186    255.69469   -3023.1565   -2578.9345    111.83652     12439.86 
   24750    292.24985    255.45085   -3015.0282   -2580.3287     419.3265    12436.554 
   24800    305.09271     255.9975   -3033.2499   -2579.4477   -66.842879    12433.329 
   24850    303.67634    255.94359   -3031.4529   -2579.7574   -66.902158        12430 
   24900      286.807    255.28236   -3009.4121   -2582.8085    568.55126    12426.558 
   24950    292.76601    255.51798   -3017.2659   -2581.7987    408.55536    12423.276 
   25000    309.41888    256.01458   -3033.8194   -2573.5823   -69.119905    12420.107 
   25050    301.84645     250.7581   -3025.2699   -2576.2962    196.07826    12416.821 
   25100    299.11811    250.67087   -3022.3624   -2577.4469    262.26769    12413.507 
   25150    315.54825    251.37869   -3045.9564   -2576.6023    -310.4327    12410.176 
   25200    303.29088     250.9234     -3030.78   -2579.6578    134.26248    12406.605 
   25250    293.40523    250.60409   -3020.1364   -2583.7183    614.90737     12402.98 
   25300    298.30075    250.79154   -3026.3848    -2582.685    478.07353    12399.565 
   25350    303.07605     250.9908   -3033.0265   -2582.2239    314.80322    12396.295 
   25400    305.81394    251.07972   -3035.9906   -2581.1155    190.78049    12393.073 
   25450    303.32061     250.9711     -3032.37   -2581.2036    283.52643    12389.836 
   25500    296.35473    250.71914   -3023.9713   -2583.1661    514.55781    12386.652 
   25550    310.35442    251.27084   -3042.3612   -2580.7325    92.401269     12383.58 
   25600    296.09076    250.78412   -3026.1374   -2585.7248    590.88028    12380.504 
   25650    305.70987    251.17423   -3039.1411   -2584.4208    276.19891    12377.577 
   25700    310.53808    251.26536   -3042.1786   -2580.2768    142.39581    12374.697 
   25750    302.30856    251.06442   -3035.4805   -2585.8194    359.85655      12371.8 
   25800    302.52909    251.08573    -3036.191   -2586.2019    430.18618    12368.964 
   25850     311.7659    251.42293   -3047.4312    -2583.703    244.67881    12366.233 
   25900    313.89055    251.54635   -3051.5451   -2584.6567    178.09628    12363.515 
   25950    312.70126    251.47944   -3049.3147   -2584.1953    230.98438    12360.764 
   26000    297.85183    250.96071   -3032.0238   -2588.9918    692.52992    12358.048 
   26050    291.98237    255.78652   -3026.2172   -2591.9155    879.01738    12355.586 
   26100    286.40901    255.55021   -3018.3405   -2592.3288    1064.3605    12353.493 
   26150    285.02312    255.63013   -3021.0043    -2597.054    1050.6969    12351.862 
   26200    300.60502    256.22786   -3040.9287   -2593.8015    557.59922     12350.67 
   26250    311.10874    256.61329   -3053.7762   -2591.0255    235.04927    12349.688 
   26300    306.25283    256.42741   -3047.5805   -2592.0526    463.81973    12348.737 
   26350    298.32266    256.22523   -3040.8412   -2597.1088    669.77952    12347.911 
   26400    305.04952    256.63752    -3054.584    -2600.846    264.63964    12347.295 
   26450    292.98853    256.23316   -3041.1054   -2605.3071    617.76738    12346.744 
   26500    291.31905    256.25335   -3041.7782   -2608.4632    656.59594    12346.393 
   26550    291.28081     256.2926   -3043.0868   -2609.8287    567.91299    12346.284 
   26600    289.79485    256.26549    -3042.183   -2611.1351    480.64082    12346.358 
   26650    297.82684    256.65203   -3055.0677   -2612.0729    151.03051    12346.564 
   26700     305.5138    257.06465   -3068.8217   -2614.3931   -150.46229    12346.734 
   26750    297.22059    256.72177   -3057.3925   -2615.2994     134.3207    12346.719 
   26800    290.00317    256.53716   -3051.2387   -2619.8809    387.29824    12346.637 
   26850    277.98673    256.12135   -3037.3783   -2623.8941    737.80937    12346.665 
   26900    291.76946    256.71374   -3057.1248   -2623.1399    125.02362    12346.916 
   26950    306.02215    257.35308   -3078.4359   -2623.2511   -478.26104    12347.103 
   27000    296.05768     256.9167   -3063.8901   -2623.5267   -126.60664    12346.955 
   27050    286.27891    256.70057   -3056.6857   -2630.8675    247.00325    12346.607 
   27100    290.85698    256.92229   -3064.0763   -2631.4486    130.31305    12346.249 
   27150    290.35886    256.85662   -3061.8874   -2630.0006    154.30887    12345.853 
   27200    274.02643     256.2012   -3040.0401   -2632.4466    648.06417    12345.455 
   27250    276.20831    256.39205   -3046.4015   -2635.5626     438.5445     12345.25 
   27300    291.25631    256.93973   -3064.6577    -2631.436    -116.4496    12345.151 
   27350    290.85424    256.93526   -3064.5086    -2631.885   -125.05477    12344.892 
   27400    279.77933    256.52371   -3050.7904   -2634.6399    317.90371    12344.459 
   27450    285.64261    256.71512   -3057.1706   -2632.2988    141.16366    12344.048 
   27500    293.13093    257.03768   -3067.9227   -2631.9126   -169.67134    12343.576 
   27550    283.84624    256.77196   -3059.0653   -2636.8655    126.03962    12342.924 
   27600    279.36882    256.59199   -3053.0663   -2637.5264    174.41294    12342.215 
   27650     291.0417    257.07304   -3069.1014   -2636.1989   -368.97632    12341.438 
   27700    295.12527     257.1522     -3071.74   -2632.7635   -541.06177    12340.357 
   27750    287.69373     256.8925   -3063.0832   -2635.1606   -235.94491    12338.885 
   27800    288.42556    256.84026    -3061.342   -2632.3308   -104.67018    12337.143 
   27850    278.12831    256.56551   -3052.1838    -2638.489    208.46244    12335.247 
   27900    284.37659    256.75335   -3058.4449   -2635.4563    35.720488    12333.323 
   27950    292.21058    257.07048    -3069.016   -2634.3749    -274.0084    12331.308 
   28000    294.20746    257.04093   -3068.0309   -2630.4196   -340.91316    12329.044 
   28050    298.56715    252.24014   -3074.6715   -2630.5754   -391.36238    12326.456 
   28100    284.06302    251.77895   -3059.2985   -2636.7763    160.58039    12323.567 
   28150    271.57985     251.2341   -3041.1365   -2637.1821    624.25757    12320.643 
   28200    293.48219    252.01897   -3067.2989   -2630.7664   -93.954601    12317.879 
   28250    299.85833     252.2414   -3074.7134   -2628.6969   -310.10572    12314.967 
   28300    294.27055    252.01546   -3067.1821    -2629.477   -19.420358     12311.77 
   28350    288.39507    251.74656   -3058.2187   -2629.2529    309.70086    12308.445 
   28400    293.32903    251.88862   -3062.9541   -2626.6494     232.6257    12305.147 
   28450    301.86126    252.27146   -3075.7153   -2626.7196   -30.332745    12301.826 
   28500    291.09115    251.88751   -3062.9171   -2629.9411    348.72887    12298.392 
   28550    287.68008    251.72343   -3057.4475   -2629.5452    495.44589    12295.016 
   28600    289.07049    251.76485   -3058.8283   -2628.8579     546.9059    12291.784 
   28650    290.13816    251.78871   -3059.6235    -2628.065    571.63373    12288.732 
   28700    305.27293    252.17216   -3072.4055   -2618.3351    130.86421    12285.849 
   28750    302.60863     252.0547     -3068.49   -2618.3826    226.71343    12282.946 
   28800    307.78657    252.35121   -3078.3736   -2620.5644    13.136295    12279.998 
   28850    300.21877     252.0451   -3068.1699   -2621.6172    292.39788    12276.956 
   28900    303.60138    252.05979   -3068.6598   -2617.0757    497.74628    12273.942 
   28950    285.06022     251.4193   -3047.3101   -2623.3046    1251.2395    12271.125 
   29000    296.98563    251.81983    -3060.661   -2618.9174    845.55039    12268.792 
   29050    311.72575    257.41915   -3080.6383   -2616.9699    197.64904    12266.795 
   29100    297.22401    256.89047   -3063.0156   -2620.9174    597.16918    12264.852 
   29150    298.97132    256.90937   -3063.6456   -2618.9485    561.11158    12263.075 
   29200    309.13346    257.20676   -3073.5586    -2613.746    244.80048    12261.471 
   29250    302.62639    256.97509   -3065.8363   -2615.7025    522.90918    12259.907 
   29300    296.71579    256.68526   -3056.1754   -2614.8331    936.31812    12258.507 
   29350    300.72862    256.81795   -3060.5983   -2613.2873    951.21281     12257.49 
   29400    308.44949    257.06517    -3068.839   -2610.0438    659.99758    12256.846 
   29450    288.34741      256.339   -3044.6334   -2615.7385    1291.9841    12256.478 
   29500    287.33059    256.42045   -3047.3484   -2619.9659    1325.9042    12256.677 
   29550    305.96391    257.00888   -3066.9627   -2611.8646    811.43819    12257.461 
   29600     303.5641    256.81879   -3060.6263   -2609.0977    989.13345    12258.606 
   29650     301.8661    256.85829   -3061.9432   -2612.9402    976.78018    12260.149 
   29700    298.76874    256.66053   -3055.3508    -2610.955    1072.9766      12262.1 
   29750    301.31737    256.77758   -3059.2525   -2611.0658    1008.2821    12264.478 
   29800    287.04311    256.24214   -3041.4046   -2614.4497    1412.8933    12267.303 
   29850    292.99647    256.41074   -3047.0246   -2611.2145     1120.483    12270.726 
   29900    298.63433    256.65674   -3055.2247   -2611.0288    859.96299    12274.628 
   29950    299.27025    256.58201   -3052.7338    -2607.592    887.93288    12278.877 
   30000    308.14641    256.96857   -3065.6189   -2607.2745    495.38065    12283.456 
   30050    305.80743    251.87462   -3062.4873    -2607.622     394.0333    12288.182 
   30100    304.48743    251.74606    -3058.202      -2605.3    448.80256    12292.958 
   30150    305.64671    251.68857   -3056.2855   -2601.6592    487.44377    12297.822 
   30200    306.14183    251.69052   -3056.3507   -2600.9879    444.38911    12302.795 
   30250    317.20656    252.11371   -3070.4569   -2598.6362    61.262123    12307.807 
   30300    307.48914    251.81297   -3060.4322   -2603.0654    403.00174    12312.719 
   30350    292.18149    251.26275   -3042.0917   -2607.4939    883.08161    12317.713 
   30400     314.4711    252.06361   -3068.7871   -2601.0351    28.978193    12322.942 
   30450    326.97624    252.50416   -3083.4721   -2597.1197   -501.33576    12328.039 
   30500    296.75288    251.31577    -3043.859   -2602.4616    489.25448    12332.776 
   30550    293.98826    251.22083   -3040.6942    -2603.409    570.38345    12337.553 
   30600    308.79051    251.86376   -3062.1254    -2602.823   -26.207373    12342.454 
   30650    304.14871    251.67701   -3055.9003   -2603.5021    89.345582    12347.211 
   30700    293.04369     251.1865   -3039.5501   -2603.6699    457.74843    12351.864 
   30750    291.27149    251.19792   -3039.9306   -2606.6863    465.08262    12356.599 
   30800    287.20678    250.99568   -3033.1894    -2605.991    607.37571    12361.437 
   30850    298.94255    251.37806   -3045.9355   -2601.2811    205.40237    12366.417 
   30900    300.91673      251.339   -3044.6335   -2597.0427    66.309923    12371.366 
   30950    301.13068    251.42412   -3047.4708   -2599.5617   -52.800392    12376.175 
   31000    304.09583     251.5685   -3052.2832   -2599.9637   -227.29964    12380.786 
   31050    307.80249    251.73768   -3057.9226   -2600.0897   -483.57382    12385.092 
   31100       306.37    251.64424   -3054.8079   -2599.1057   -544.85745    12388.969 
   31150    298.23381    251.35696   -3045.2321   -2601.6319   -271.27547    12392.386 
   31200    291.80118    251.12554   -3037.5181   -2603.4859   -10.733344    12395.492 
   31250    304.29014    251.54511   -3051.5038   -2598.8953   -393.24385    12398.397 
   31300    298.45369    251.33053   -3044.3512   -2600.4239    -349.1222    12400.969 
   31350    294.98465    251.18898   -3039.6327   -2600.8654   -275.90573    12403.177 
   31400    294.67029    251.16064   -3038.6879   -2600.3881   -253.31987    12405.082 
   31450    302.65307    251.46926   -3048.9752   -2598.8017   -499.26676    12406.681 
   31500    296.09416    251.21876   -3040.6253   -2600.2076    -199.8207    12407.879 
   31550    281.52049    250.75956   -3025.3185   -2606.5781    255.02322     12408.82 
   31600    290.80103    251.04237   -3034.7456   -2602.2011     5.163484    12409.713 
   31650    283.52498    250.84323   -3028.1077   -2606.3857     251.7773    12410.496 
   31700     283.8398    250.82635    -3027.545   -2605.3548    155.27203    12411.263 
   31750    308.31587    251.62267   -3054.0891   -2595.4927   -651.25054    12411.931 
   31800    294.85992    251.10454   -3036.8181   -2598.2363   -213.11008    12412.163 
   31850    302.94387     251.4114   -3047.0466   -2596.4406   -403.25426    12412.076 
   31900    291.97865    251.05388   -3035.1293   -2600.8332   -1.2438726    12411.646 
   31950    277.59202    250.56079   -3018.6931    -2605.796    452.11166    12411.072 
   32000     298.3052    251.26001   -3042.0004    -2598.294    -163.4359    12410.539 
   32050    297.18813    256.14561   -3038.1871   -2596.1423   -92.348641    12409.828 
   32100    292.58099    255.87064   -3029.0214   -2593.8294    197.74131    12408.943 
   32150    293.25992    256.01673    -3033.891   -2597.6891    133.05345    12408.023 
   32200    297.36016    256.21312   -3040.4373   -2598.1366   -107.75076    12407.045 
   32250     290.6227    255.91723   -3030.5744   -2598.2952    146.87138    12405.905 
   32300    287.11289    255.72323   -3024.1076   -2597.0489    316.09618    12404.717 
   32350    293.82663    256.01454   -3033.8179   -2596.7731   -9.5551267    12403.561 
   32400    303.58639    256.36539    -3045.513   -2593.9513   -357.66857    12402.263 
   32450     296.2523    256.01376   -3033.7921   -2593.1393   -8.1946825    12400.676 
   32500    290.87923    255.85513   -3028.5044   -2595.8436    246.48575    12398.941 
   32550    293.85674    255.90242   -3030.0805   -2592.9909    134.14252    12397.214 
   32600    302.02494    256.14138   -3038.0459   -2588.8067   -87.806819    12395.427 
   32650     284.1261    255.50274    -3016.758   -2594.1419    543.27914    12393.508 
   32700    312.74825    256.38441   -3046.1471   -2580.9578   -234.57665    12391.662 
   32750    299.55682    255.98124   -3032.7082   -2587.1401    261.17064    12389.642 
   32800    293.23175    255.77421   -3025.8069   -2589.6469    639.21414     12387.62 
   32850    298.95315    255.93751   -3031.2504   -2586.5803    538.24694    12385.809 
   32900    302.04509     256.0354   -3034.5134   -2585.2443    424.76703    12384.173 
   32950    296.62377      255.707   -3023.5665   -2582.3611    688.66812     12382.67 
   33000    312.89722    256.31043   -3043.6811   -2578.2701    194.77288    12381.372 
   33050    304.17711    256.04975   -3034.9917   -2582.5513     540.7183    12380.104 
   33100    304.47436    255.99238   -3033.0793   -2580.1968    594.06236    12378.978 
   33150    309.28433    256.20983   -3040.3277   -2580.2907    398.24156    12378.047 
   33200    301.99396    255.85729   -3028.5763   -2579.3831    630.32109    12377.244 
   33250    304.80666    255.91014    -3030.338   -2576.9612    507.47044    12376.639 
   33300    303.08864     255.8895     -3029.65   -2578.8287    608.74537    12376.201 
   33350    306.26594    256.00843   -3033.6144    -2578.067    657.37348    12375.959 
   33400    317.67603    256.35518   -3045.1725   -2572.6535    366.05807    12375.936 
   33450    305.87953    255.72548   -3024.1828   -2569.2101    770.35715     12376.04 
   33500    305.20421    255.65176   -3021.7254   -2567.7572     716.0458    12376.402 
   33550    315.18282    256.10223   -3036.7409   -2567.9303      288.338    12377.004 
   33600    314.03679    256.10767   -3036.9224   -2569.8164    301.91979    12377.652 
   33650    320.45158    256.35265   -3045.0884   -2568.4409    95.318826    12378.307 
   33700    307.63946    255.80557   -3026.8522   -2569.2618    580.87995    12378.923 
   33750    308.01571    255.83403    -3027.801    -2569.651    606.09796    12379.682 
   33800    315.30355    256.10709   -3036.9031    -2567.913    385.17018     12380.62 
   33850    306.44142    255.85855   -3028.6182   -2572.8098    619.61492    12381.678 
   33900    316.66082    256.26722   -3042.2407   -2571.2317    216.94258    12382.892 
   33950    314.23815    256.09845   -3036.6152   -2569.2097    308.40706    12384.114 
   34000    300.68515    255.58787   -3019.5957   -2572.3493    837.10342     12385.39 
   34050    304.19819    255.68415   -3022.8051   -2570.3334    739.33636    12386.966 
   34100     316.5733    256.07119   -3035.7063   -2564.8275    190.72833    12388.805 
   34150    321.95378    256.28256   -3042.7519   -2563.8701   -64.629028    12390.612 
   34200    306.73512    255.72173   -3024.0577   -2567.8125    465.17728    12392.289 
   34250    296.38876    255.36118   -3012.0394   -2571.1836    864.16449    12394.068 
   34300    307.11489    255.73937   -3024.6458   -2567.8357     575.4634    12396.157 
   34350    299.66678    255.47187   -3015.7291   -2569.9975    824.78676    12398.486 
   34400    307.30239     255.8586     -3028.62    -2571.531    522.55571    12401.097 
   34450    306.64136    255.84997   -3028.3323   -2572.2265    509.13429    12403.889 
   34500    300.45673    255.71732   -3023.9107   -2577.0041    626.88073     12406.83 
   34550    301.63498    255.61476    -3020.492   -2571.8328     514.2602    12409.974 
   34600     293.0908    255.35458   -3011.8193   -2575.8689    713.02649    12413.288 
   34650    307.36106    255.86547    -3028.849   -2571.6727    213.94784    12416.809 
   34700    298.00252    255.67949   -3022.6498   -2579.3936    278.92315    12420.356 
   34750     306.4656    255.98995   -3032.9982   -2577.1538   -135.46199    12423.875 
   34800    312.99818    256.26918   -3042.3061    -2576.745   -424.05151    12427.185 
   34850    305.02803    255.96302   -3032.1007   -2578.3947   -154.12385    12430.137 
   34900    291.62901    255.53391   -3017.7969   -2584.0208    179.11236    12432.861 
   34950    301.05622    255.92055    -3030.685   -2582.8867   -234.78015    12435.499 
   35000    289.41204    255.50591   -3016.8637   -2586.3852    114.02264    12437.926 
   35050    276.31201     250.1656   -3005.5199   -2594.5267    451.38839    12440.269 
   35100    289.35284    250.77049    -3025.683   -2595.2926   -104.47964    12442.665 
   35150    306.78511    251.46832   -3048.9439   -2592.6243   -832.10153    12444.851 
   35200    310.44414    251.61803   -3053.9345   -2592.1724   -1070.8578    12446.438 
   35250    301.56849     251.2721   -3042.4034   -2593.8431   -853.19805    12447.291 
   35300    290.24965    250.94853   -3031.6177   -2599.8934   -462.42728    12447.523 
   35350    286.08946    250.83214    -3027.738   -2602.2016   -246.76014    12447.334 
   35400      298.341    251.40561   -3046.8538   -2603.0941   -721.96065    12446.822 
   35450    303.00565    251.61683   -3053.8943   -2603.1963   -936.27138    12445.772 
   35500    292.53545    251.31061   -3043.6869   -2608.5626   -663.77108     12444.08 
   35550    302.14226    251.78018   -3059.3392   -2609.9255   -1006.3597    12441.816 
   35600    285.58104    251.21256   -3040.4187   -2615.6386   -491.79427    12438.898 
   35650    281.16377    251.08708   -3036.2359   -2618.0261   -339.19047    12435.552 
   35700    285.84163    251.26599   -3042.1996   -2617.0318     -432.072    12431.869 
   35750    277.53399    250.93396   -3031.1319   -2618.3211     -60.0515     12427.84 
   35800    297.76447     251.7553   -3058.5101    -2615.608   -778.07646     12423.58 
   35850    299.06952    251.85425   -3061.8084   -2616.9651   -972.28647    12418.768 
   35900     288.2772    251.56063   -3052.0212   -2623.2307   -656.18276    12413.287 
   35950    285.71531    251.63021   -3054.3404   -2629.3606   -608.34035      12407.3 
   36000    278.21811    251.28655   -3042.8849   -2629.0566   -306.26696    12400.864 
   36050    274.12504    251.14339   -3038.1131   -2630.3728   -57.307876    12394.124 
   36100    284.78475    251.49216   -3049.7386   -2626.1429   -336.45478    12387.194 
   36150    287.68765    251.65535   -3055.1785   -2627.2649   -376.19164    12379.961 
   36200    281.42685    251.42128   -3047.3759   -2628.7747   -10.482398    12372.413 
   36250    290.85339    251.81031   -3060.3436   -2627.7212   -202.50553    12364.701 
   36300    291.83508    251.81098   -3060.3661   -2626.2835   -143.81379     12356.78 
   36350    287.04994    251.61726   -3053.9087   -2626.9437    176.32899    12348.661 
   36400    291.21851    251.73609   -3057.8697   -2624.7043    191.15447    12340.498 
   36450      295.464    251.86444   -3062.1479   -2622.6676    68.996508    12332.326 
   36500    306.52648     252.3281   -3077.6034   -2621.6685    -248.3051    12324.044 
   36550    285.70103    251.57643   -3052.5476    -2627.589     509.9987    12315.566 
   36600    296.65166     251.9808   -3066.0266   -2624.7797    246.88119    12307.191 
   36650    286.48576    251.57396   -3052.4655   -2626.3396    706.13052    12298.877 
   36700     296.0019    252.01546   -3067.1821   -2626.9017    463.76266    12290.781 
   36750    305.98975    252.37301   -3079.1004   -2623.9639    131.14948    12282.837 
   36800      303.788     252.3771   -3079.2366    -2627.375    219.98942    12274.853 
   36850    300.29119    252.11145   -3070.3818   -2623.7214    495.05532    12266.889 
   36900    305.89143    252.31735   -3077.2451   -2622.2548    453.77704    12259.054 
   36950    318.83041     252.7931   -3093.1035   -2618.8674    163.82794    12251.322 
   37000     304.7408    252.25222   -3075.0739    -2621.795    772.65743    12243.608 
   37050     296.9078    251.94615   -3064.8717   -2623.2438    1183.7034    12236.172 
   37100    292.20565    251.81975   -3060.6582   -2626.0245     1500.391    12229.255 
   37150    279.60238    251.32408   -3044.1361   -2628.2487    2027.2409    12223.056 
   37200    300.23268     251.9876   -3066.2532   -2619.6799    1341.4378    12217.763 
   37250    302.20324    252.09486   -3069.8287   -2620.3242    1208.0355    12213.109 
   37300    298.46993    251.86238   -3062.0793   -2618.1279    1490.3803    12208.995 
   37350    301.18151    251.98937   -3066.3123   -2618.3277    1465.1957    12205.554 
   37400    315.64921    252.46706   -3082.2353    -2612.731     924.2334    12202.752 
   37450    301.12498    251.91861   -3063.9535   -2616.0529    1327.4502    12200.368 
   37500    303.73433     252.0845   -3069.4833   -2617.7015     1232.351    12198.534 
   37550     320.1676    252.66781   -3088.9269   -2612.7019    796.21371    12197.202 
   37600    309.97961    252.36899   -3078.9663   -2617.8951    1187.8884    12196.209 
   37650     305.1341    252.18623   -3072.8745   -2619.0107    1441.8942    12195.715 
   37700    307.17945    252.34996    -3078.332   -2621.4259    1257.8527    12195.842 
   37750    311.65762    252.47239   -3082.4131    -2618.846     993.3881    12196.488 
   37800    305.70144    252.31978   -3077.3259   -2622.6181    1177.4321    12197.538 
   37850     279.1538    251.26345   -3042.1149   -2626.8948    2104.1435    12199.156 
   37900    296.69502    251.83194   -3061.0648   -2619.7534    1544.3296    12201.688 
   37950    309.14018    252.29561   -3076.5202   -2616.6976    1019.4401    12204.937 
   38000    305.37616       252.18   -3072.6668   -2618.4429    1066.7874    12208.624 
   38050    301.83765    252.04295   -3068.0984   -2619.1377    1206.3455    12212.736 
   38100    294.44268    251.76985   -3058.9951   -2621.0339    1382.1356    12217.379 
   38150    304.90811    252.08597   -3069.5324   -2616.0047    1067.9905    12222.591 
   38200    301.88369    251.94809   -3064.9362   -2615.9071    1176.4328     12228.25 
   38250     313.6748    252.46915   -3082.3051   -2615.7376    730.78723    12234.346 
   38300    296.13447    251.83244   -3061.0815   -2620.6039    1225.1874     12240.75 
   38350    306.94793    252.23612   -3074.5374   -2617.9756    686.93634    12247.609 
   38400    320.74816    252.78686   -3092.8955   -2615.8069    59.067526    12254.678 
   38450    311.85784    252.40631   -3080.2105   -2616.3456    338.81786    12261.661 
   38500    296.62949    251.84784   -3061.5947   -2620.3808    806.92604     12268.68 
   38550    300.65926    251.99647    -3066.549   -2619.3412    551.13741    12275.951 
   38600    307.04178    252.24529   -3074.8429   -2618.1415    300.12865    12283.366 
   38650    287.63691    251.43565    -3047.855    -2620.017    915.92482     12290.85 
   38700    315.13509    252.34304   -3078.1014   -2609.3618   -32.705467    12298.587 
   38750    299.12654    251.83447   -3061.1491    -2616.221    411.86775    12306.229 
   38800    289.12734    251.47579   -3049.1929   -2619.1378    724.49768    12313.924 
   38850    307.66925    252.07057    -3069.019   -2611.3843    88.992177    12321.807 
   38900    281.69391    251.13841   -3037.9472   -2618.9488    819.00236    12329.664 
   38950    297.76422    251.91313   -3063.7711   -2620.8694     128.1834    12337.716 
   39000    301.28492    252.01953   -3067.3175    -2619.179   -143.91413     12345.72 
   39050    291.13285    246.58297   -3052.7657   -2619.7276    154.06464    12353.505 
   39100    281.58003    246.23182   -3041.0607   -2622.2317    401.76313    12361.216 
   39150    299.93853    247.00422   -3066.8075   -2620.6716   -366.61795     12368.91 
   39200    293.18635    246.77548   -3059.1825     -2623.09   -315.45181    12376.277 
   39250     293.5255    246.83473   -3061.1577   -2624.5608   -352.02391    12383.274 
   39300    283.01242    246.36502   -3045.5007   -2624.5412   -110.55694    12389.932 
   39350    300.00616     246.9971     -3066.57   -2620.3336   -797.26129    12396.278 
   39400    287.38694    246.56521   -3052.1735   -2624.7072   -466.21213    12402.063 
   39450    288.69969    246.56884   -3052.2947   -2622.8758   -523.40713     12407.39 
   39500    288.11211    246.61921   -3053.9736   -2625.4287   -635.56298     12412.26 
   39550    291.68653    246.80885   -3060.2951   -2626.4335   -832.91204    12416.578 
   39600    287.66291     246.5921     -3053.07   -2625.1932   -743.50629    12420.279 
   39650    289.51924    246.59713   -3053.2376   -2622.5997   -857.23781     12423.39 
   39700    295.43983    246.73009   -3057.6698   -2618.2254   -1115.2248    12425.837 
   39750    278.92138    246.12624   -3037.5414    -2622.667   -729.19268    12427.525 
   39800     284.8091     246.4593   -3048.6433   -2625.0113   -978.30133    12428.587 
   39850    292.88236    246.74767   -3058.2558   -2622.6155   -1107.4563    12428.937 
   39900     291.1038    246.62996   -3054.3319   -2621.3371   -868.06001    12428.516 
   39950    284.17863    246.37726   -3045.9087   -2623.2145   -623.43958    12427.442 
   40000    287.10584    246.38469   -3046.1564   -2619.1082   -672.92434    12425.838 
   40050    278.97374     251.0522   -3035.0734   -2620.1211   -372.08221    12423.742 
   40100    279.51112    251.13872   -3037.9574   -2622.2058   -387.27669    12421.262 
   40150    272.81818    250.91174   -3030.3914   -2624.5951   -234.17421    12418.455 
   40200    301.82734    251.97089   -3065.6964   -2616.7511   -1132.1604    12415.316 
   40250    288.66335    251.39087   -3046.3624   -2616.9975   -628.40501    12411.492 
   40300    287.79001    251.33645   -3044.5482   -2616.4823   -519.31084    12407.146 
   40350    292.23597    251.41827   -3047.2756   -2612.5968   -555.15449    12402.366 
   40400    284.56215    251.12005   -3037.3348   -2614.0702   -194.46391    12397.172 
   40450     290.8439    251.34761   -3044.9202    -2612.312   -237.93368    12391.716 
   40500    299.59615    251.71634   -3057.2112   -2611.5846   -372.27536    12385.988 
   40550    295.54308    251.55746   -3051.9155   -2612.3175   -147.70307    12379.945 
   40600    297.64592    251.57324   -3052.4413   -2609.7155   -144.98748    12373.668 
   40650     287.3844    251.09837   -3036.6122   -2609.1497    296.64714    12367.227 
   40700    289.99603     251.1979   -3039.9299   -2608.5828    329.99456    12360.795 
   40750    296.65171    251.42715   -3047.5718   -2606.3248    289.45298    12354.417 
   40800    298.14459    251.41117   -3047.0388   -2603.5714    423.48726    12348.095 
   40850    292.89335    251.12363   -3037.4543   -2601.7976    758.98093    12341.897 
   40900    301.12132    251.43893   -3047.9643   -2600.0692    539.03333    12335.973 
   40950    309.14549    251.75927   -3058.6424   -2598.8119    258.75268    12330.215 
   41000    310.17933    251.67542   -3055.8473   -2594.4791    357.63164    12324.477 
   41050    306.20954    256.45879   -3048.6263   -2593.1628    624.40562     12318.84 
   41100     300.9728    256.17323   -3039.1075   -2591.4333     923.7509    12313.426 
   41150    313.86227    256.65589   -3055.1962   -2588.3498     664.1558    12308.365 
   41200    306.88236    256.32042   -3044.0139   -2587.5497    979.45756    12303.601 
   41250    297.52059    255.94165   -3031.3882   -2588.8489    1227.5009    12299.256 
   41300    306.96692    256.32787   -3044.2624   -2587.6724    939.99206    12295.444 
   41350    301.38742    256.12794   -3037.5981   -2589.3072    1276.4684    12292.056 
   41400     300.3484    256.09894   -3036.6313   -2589.8858    1473.4797    12289.245 
   41450    321.47873    256.82965   -3060.9883   -2582.8131    822.20489    12287.081 
   41500     322.8904    256.84808   -3061.6026   -2581.3276    761.35985     12285.27 
   41550    309.84065    256.35943   -3045.3142   -2584.4497    1163.9206    12283.763 
   41600    306.12303    256.21074   -3040.3581   -2585.0233    1207.3613    12282.739 
   41650    315.58594    256.54291   -3051.4303   -2582.0202    865.33268    12282.233 
   41700    315.70739    256.53358   -3051.1194   -2581.5286    872.94866    12282.097 
   41750    319.31732    256.52288   -3050.7627   -2575.8024    860.31103    12282.304 
   41800    323.54124    256.70571   -3056.8571   -2575.6141    753.81512    12282.835 
   41850    312.23549    256.33974    -3044.658   -2580.2314    1174.7171    12283.674 
   41900    311.07673    256.34015   -3044.6716   -2581.9685    1241.8183    12285.006 
   41950    318.22397    256.60824    -3053.608    -2580.274    914.17828    12286.882 
   42000    329.86816    257.04045    -3068.015   -2577.3611    531.34533    12289.117 
   42050    324.15132    251.79148   -3059.7161   -2577.5656    846.12008    12291.538 
   42100    313.43486    251.47494   -3049.1646    -2582.954    1168.9856    12294.256 
   42150    305.42312    251.19497   -3039.8323   -2585.5386    1277.5262    12297.465 
   42200    307.04122    251.32378    -3044.126   -2587.4255    1163.2837    12301.209 
   42250    300.57847    251.03348   -3034.4493   -2587.3616    1392.7241    12305.458 
   42300    310.94305    251.40788   -3046.9292    -2584.425    862.99403    12310.295 
   42350    335.17504    252.44378   -3081.4594   -2582.9119   -148.08118    12315.408 
   42400    315.44864    251.71557   -3057.1856   -2587.9797    448.59721    12320.369 
   42450     310.0963    251.48982   -3049.6608    -2588.416    555.49327    12325.386 
   42500    311.12558    251.51667   -3050.5557   -2587.7799    469.91043    12330.547 
   42550    293.45681    250.97563    -3032.521   -2596.0263    954.92323    12335.855 
   42600    310.02034    251.59908   -3053.3027    -2592.171     412.8461    12341.457 
   42650    293.68595    251.09588   -3036.5295   -2599.6939    869.19888    12347.198 
   42700    298.83959    251.27243   -3042.4143    -2597.913    586.87492     12353.21 
   42750    294.22179    251.08625   -3036.2083   -2598.5756    579.04278    12359.426 
   42800    301.69531    251.42539   -3047.5132   -2598.7642    179.41095    12365.778 
   42850    308.23832    251.77334   -3059.1113   -2600.6302   -110.84481    12372.068 
   42900    304.78296    251.62495   -3054.1651   -2600.8235   -47.226357    12378.165 
   42950    294.86646    251.27036   -3042.3455    -2603.754    140.54805    12384.091 
   43000    298.41575    251.51213   -3050.4044   -2606.5336    -107.8239    12389.901 
   43050    288.53651    256.06243   -3035.4142    -2606.238    201.43445    12395.528 
   43100    279.24419    255.66737   -3022.2456   -2606.8911    451.85189    12401.139 
   43150    295.97308    256.36546   -3045.5152   -2605.2776   -230.20784    12406.823 
   43200    307.30366     256.7863   -3059.5433   -2602.4524   -702.32995    12412.244 
   43250    293.31707    256.33945   -3044.6483   -2608.3614   -330.15219    12417.174 
   43300    292.72517    256.29543   -3043.1811   -2607.7746   -371.77466    12421.751 
   43350    302.53871    256.68228   -3056.0758   -2606.0724    -779.5059    12425.947 
   43400    291.36785    256.27574   -3042.5246    -2609.137   -514.21087      12429.6 
   43450    287.30346    256.11477   -3037.1589   -2609.8168   -463.49377    12432.813 
   43500     289.4916    256.15367   -3038.4556   -2607.8588   -585.83301    12435.621 
   43550    288.47991    256.15511   -3038.5036   -2609.4116   -598.40849    12437.969 
   43600      285.414    256.05611   -3035.2036   -2610.6719   -540.08461    12439.845 
   43650     283.5885    255.96982   -3032.3272   -2610.5108   -495.18632    12441.281 
   43700    278.44971    255.78609   -3026.2029   -2612.0301   -341.48938    12442.308 
   43750    285.02102    255.94596    -3031.532   -2607.5848    -492.0177     12442.99 
   43800    284.12694    256.01996   -3033.9985   -2611.3812   -438.80328    12443.291 
   43850    285.88201     256.0581     -3035.27   -2610.0422   -514.08638    12443.215 
   43900    294.32914    256.50322   -3050.1072   -2612.3149   -885.71519     12442.69 
   43950    293.18524    256.38065   -3046.0217   -2609.9309   -797.14882     12441.56 
   44000    286.08731    256.07377   -3035.7924   -2610.2592    -459.5525    12439.869 
[...]
   89400    310.49823    255.72577   -3024.1922   -2562.3496   -50.363787    12450.114 
   89450    305.91392    255.59247    -3019.749   -2564.7252    47.332306    12452.301 
   89500    303.90449    255.58235   -3019.4115   -2567.3766    58.690911     12454.37 
   89550    292.46962    255.18724   -3006.2415   -2571.2151    322.84681    12456.355 
   89600    295.48892    255.40696   -3013.5654    -2574.048    99.412969    12458.363 
   89650     307.2035     255.8441   -3028.1366   -2571.1947   -341.32541    12460.275 
   89700    297.38848    255.54693   -3018.2309    -2575.888   -19.729135    12461.901 
   89750    289.91929    255.21218   -3007.0726   -2575.8396    267.68646    12463.384 
   89800    304.09289    255.71507   -3023.8357   -2571.5205    -188.4036    12464.844 
   89850    306.22066    255.97612   -3032.5372   -2577.0572    -398.0385     12466.07 
   89900    291.60766     255.4428   -3014.7601   -2581.0157   -34.488505    12466.963 
   89950    292.42892    255.51815   -3017.2718    -2582.306   -53.891149    12467.685 
   90000    297.41288    255.68466   -3022.8218   -2580.4427    2.4554446    12468.247 
   90050    274.24265    259.75567   -2991.8556   -2583.9404    837.70867    12468.743 
   90100    289.16361    260.42271   -3014.0903   -2583.9814    232.14584    12469.499 
   90150     293.2846    260.67136   -3022.3786     -2586.14   -21.457074    12470.313 
   90200    294.46623    260.69885    -3023.295   -2585.2988   -80.897536    12470.995 
   90250    281.67169    260.21445   -3007.1485   -2588.1832    320.70169     12471.54 
   90300    284.00161    260.29291   -3009.7638   -2587.3329    212.43037    12472.121 
   90350    282.03061    260.38719   -3012.9064   -2593.4073    182.59924     12472.72 
   90400    282.18991    260.34773    -3011.591   -2591.8549    156.70629    12473.315 
   90450    287.95954     260.6216     -3020.72    -2592.402   -151.50513    12473.865 
   90500     290.2401      260.597      -3019.9   -2588.1898   -208.91559    12474.216 
   90550    273.28311    260.02995   -3000.9983   -2594.5104    364.42947    12474.364 
   90600    288.76491    260.64059   -3021.3529    -2591.837   -75.102212     12474.52 
   90650    288.29733    260.69859   -3023.2862   -2594.4658   -79.422497    12474.553 
   90700    280.08763     260.4229   -3014.0968   -2597.4876    133.66753    12474.441 
   90750    286.49419    260.69461   -3023.1536   -2597.0152   -190.49916     12474.26 
   90800    289.94488    260.81021    -3027.007    -2595.736   -350.30106    12473.858 
   90850    286.08797    260.60873   -3020.2909   -2594.7567   -199.09987    12473.163 
   90900    283.53211    260.46669   -3015.5564   -2593.8239  -0.46391871    12472.255 
   90950    288.96657    260.75747   -3025.2489    -2595.433   -142.77818    12471.202 
   91000    290.23995    260.72647   -3024.2158   -2592.5058   -112.51224    12469.964 
   91050    276.13642    255.24924   -3008.3081   -2597.5761    391.27123    12468.564 
   91100    280.25957     255.3767   -3012.5566   -2595.6917    296.38833    12467.231 
   91150    284.21655     255.5192   -3017.3065   -2594.5559    61.083345    12465.938 
   91200    293.11501    255.71703    -3023.901   -2587.9146   -294.88603    12464.536 
   91250    286.72481    255.44947   -3014.9823   -2588.5009   -92.252375    12462.894 
   91300    295.15436    255.74917   -3024.9723   -2585.9526   -237.99449    12461.042 
   91350    306.81399    256.12378   -3037.4595   -2581.0969   -407.02467    12458.909 
   91400    297.88889    255.68327   -3022.7757   -2579.6886    109.76895    12456.447 
   91450    281.63529    255.12092   -3004.0306   -2585.1194    716.92768    12453.919 
   91500    295.40757    255.62896   -3020.9654    -2581.569    335.44111    12451.609 
   91550    303.47472    255.83264   -3027.7547    -2576.359    267.27213    12449.386 
   91600    298.18825    255.47365   -3015.7882   -2572.2558    634.97176    12447.213 
   91650    303.99603    255.55886   -3018.6287   -2566.4577    502.97066    12445.221 
   91700     309.2481    255.58447   -3019.4823   -2559.4991    457.18081    12443.377 
   91750    298.03233    255.13373   -3004.4577   -2561.1572     943.3127    12441.687 
   91800    312.34112    255.70786   -3023.5954   -2559.0116    564.62853    12440.325 
   91850    292.79977     254.7903     -2993.01   -2557.4926    1292.0932    12439.224 
   91900    297.10242    254.88233   -2996.0775   -2554.1602    1247.0555     12438.65 
   91950    315.90217    255.43445   -3014.4817   -2544.6012    701.95849    12438.631 
   92000    320.01232     255.5464   -3018.2135   -2542.2194    594.95861    12438.884 
   92050    303.70279    249.90151   -2996.7169    -2544.982    1150.4007    12439.356 
   92100    319.78426    250.40292   -3013.4306   -2537.7757    681.28947    12440.258 
   92150    311.03359    250.14131   -3004.7104   -2542.0715    883.90198     12441.45 
   92200    309.64505    249.98353   -2999.4511   -2538.8775    872.12457    12442.967 
   92250    322.80642    250.39187   -3013.0624   -2532.9123     473.4649    12444.797 
   92300    325.16698    250.44333   -3014.7777   -2531.1165    494.49709    12446.756 
   92350     311.6291    249.91023   -2997.0078   -2533.4831    873.41898    12448.869 
   92400    326.90558    250.54045   -3018.0149   -2531.7677      292.548    12451.236 
   92450    307.21453     249.8349   -2994.4966   -2537.5383    883.79717    12453.705 
   92500    319.59063    250.24259   -3008.0862   -2532.7194    633.29439    12456.454 
   92550    316.59705    250.22799   -3007.5996   -2536.6855    750.55387    12459.428 
   92600    305.67259    249.76024   -2992.0081   -2537.3433    1043.6756     12462.69 
   92650    321.03335    250.42185   -3014.0617   -2536.5489    392.13777    12466.321 
   92700    323.57337    250.41611   -3013.8703   -2532.5795    212.22187    12470.045 
   92750    312.83096    249.93631   -2997.8771   -2532.5647    504.28692    12473.754 
   92800    315.44451    250.10169   -3003.3895   -2534.1897    273.26825    12477.568 
   92850    312.33147    250.04843   -3001.6143   -2537.0449    225.28014    12481.395 
   92900    317.10301    250.22802   -3007.6008   -2535.9341    105.30325    12485.175 
   92950    304.50586    249.81542   -2993.8474    -2540.918    572.83384    12488.902 
   93000    314.10461    250.15883   -3005.2945   -2538.0877    298.03564     12492.74 
   93050    311.91555     255.0651     -3002.17   -2538.2193    257.93193    12496.616 
   93100    300.95958    254.72365   -2990.7884   -2543.1339    493.04159    12500.511 
   93150    302.17661    254.78875   -2992.9583   -2543.4935    411.61731    12504.527 
   93200    300.78928      254.759   -2991.9668   -2544.5655    390.12001    12508.657 
   93250    296.77431    254.61396   -2987.1321   -2545.7028    470.52791    12512.879 
   93300    285.94017     254.1861   -2972.8699   -2547.5555    764.79037    12517.268 
   93350    301.93658    254.76768   -2992.2559   -2543.1481    149.14214    12521.915 
   93400    299.48863    254.60721   -2986.9071   -2541.4404    113.52977    12526.554 
   93450    299.42859    254.62408   -2987.4692   -2542.0919    8.9800424    12531.103 
   93500    296.85461    254.62794   -2987.5981   -2546.0494   -29.662311    12535.536 
   93550    309.09162    255.09037   -3003.0122   -2543.2619   -472.88086    12539.792 
   93600    304.95562    254.99651   -2999.8837   -2546.2854     -440.267    12543.672 
   93650    303.07668    255.01756   -3000.5854   -2549.7818    -389.7816    12547.132 
   93700    287.68613    254.36857   -2978.9522   -2551.0409     69.53735    12550.276 
   93750    297.41577    254.80384   -2993.4613   -2551.0779   -263.00339    12553.273 
   93800    292.59384    254.60429   -2986.8097   -2551.5986   -1.5988784    12556.025 
   93850    295.93901    254.81992   -2993.9973   -2553.8104   -124.68409    12558.611 
   93900    299.69467    254.91652   -2997.2172   -2551.4441   -371.27557    12560.983 
   93950    297.20472    254.84347   -2994.7823   -2552.7128   -427.91407    12563.016 
   94000    297.80235    254.89498   -2996.4993   -2553.5408   -437.12216    12564.659 
   94050    293.44124    259.79089   -2993.0297   -2556.5581   -394.14366    12565.929 
   94100    300.67717    260.08706   -3002.9019   -2555.6674   -766.05505    12566.824 
   94150    299.62158    260.13803   -3004.6011   -2558.9367    -819.1817    12567.171 
   94200    295.22337    260.02471   -3000.8236   -2561.7012   -670.71969    12566.913 
   94250    292.44792    259.89814   -2996.6046   -2561.6105    -585.7618    12566.154 
   94300    295.72265    260.05639   -3001.8797   -2562.0147    -656.9074    12564.927 
   94350    293.41676    259.91511   -2997.1703   -2560.7351   -486.12846    12563.212 
   94400    292.95113     259.8681   -2995.6032   -2559.8606   -441.68335    12561.091 
   94450    287.01017    259.67887   -2989.2957   -2562.3898   -309.85635    12558.593 
   94500    293.14299    259.94258    -2998.086   -2562.0581   -489.85628    12555.775 
   94550    292.69798     259.9945   -2999.8165   -2564.4505   -464.51731    12552.577 
   94600    301.75044    260.24795   -3008.2651   -2559.4342   -742.45919    12548.971 
   94650    303.21746    260.30394   -3010.1315   -2559.1185   -759.34291    12544.822 
   94700    296.46839    260.14506   -3004.8353    -2563.861   -486.75748    12540.116 
   94750    295.16935    260.10964   -3003.6545   -2564.6125   -395.07102    12534.992 
   94800    281.24215    259.59247   -2986.4158   -2568.0894    110.03183    12529.546 
   94850    296.93118    260.33168   -3011.0559   -2569.3933   -380.95606    12523.977 
   94900    310.25797    260.82527   -3027.5091   -2566.0239   -820.97299    12518.075 
   94950    303.73985    260.57899   -3019.2998   -2567.5098   -578.00507    12511.616 
   95000    286.81206    259.85477   -2995.1591   -2568.5479    91.001952    12504.732 
   95050    289.97122    255.07209   -3002.4029   -2571.0927   -13.486039     12497.71 
   95100    316.58688    256.14749   -3038.2498   -2567.3508   -953.24574    12490.499 
   95150    313.55092    256.07351   -3035.7837   -2569.4005   -814.41439    12482.666 
   95200     305.7302    255.79974   -3026.6579   -2571.9074   -397.74388    12474.219 
   95250    292.38949    255.34388   -3011.4628   -2576.5555    150.01815     12465.41 
   95300    293.68739    255.41061   -3013.6871   -2576.8494    188.11289    12456.514 
   95350    299.86449    255.68748   -3022.9158   -2576.8901    32.521207    12447.581 
   95400    303.51751     255.8863   -3029.5433    -2578.084    14.348711    12438.519 
   95450    290.35557    255.40462   -3013.4874   -2581.6055    443.69063    12429.391 
   95500    311.24834    256.22475   -3040.8251   -2577.8667   -251.03216    12420.304 
   95550    312.76061    256.28575   -3042.8582   -2577.6505   -229.48731    12410.961 
   95600    309.05879    256.23329   -3041.1096   -2581.4081    122.97291    12401.365 
   95650    298.14787    255.74605   -3024.8684   -2581.3961    729.23493    12391.721 
   95700    295.85902    255.71964   -3023.9881   -2583.9202    829.04164    12382.328 
   95750      306.676    256.16447   -3038.8158   -2582.6585    383.39888    12373.244 
   95800    309.88308    256.33984   -3044.6614   -2583.7338    245.00235    12364.271 
   95850     306.4519    256.25521   -3041.8404   -2586.0164    445.90389    12355.332 
   95900    308.52065    256.47435   -3049.1451    -2590.244     464.4512    12346.476 
   95950    308.42177    256.46445    -3048.815    -2590.061    501.78874    12337.758 
   96000    304.82257      256.301   -3043.3668   -2589.9663    673.16326    12329.213 
   96050    308.49937    256.44531   -3048.1771   -2589.3077    632.44879    12320.909 
   96100    300.89243    256.23436   -3041.1453   -2593.5906    840.93476    12312.847 
   96150    309.00669    256.69507   -3056.5023   -2596.8783    585.85448    12305.087 
   96200    318.50919    257.12575   -3070.8583      -2597.1    349.94715    12297.526 
   96250    298.97347    256.48378   -3049.4592   -2604.7588    1040.9546    12290.088 
   96300    299.35583    256.55896   -3051.9652   -2606.6961     956.5193    12283.061 
   96350     310.7895    257.08766   -3069.5886   -2607.3128    473.28509    12276.411 
   96400    303.13217    256.87434    -3062.478   -2611.5919    756.43257    12269.943 
   96450    299.84345    256.78199   -3059.3996   -2613.4051    895.70024    12263.764 
   96500    298.95444    256.86844   -3062.2813   -2617.6092    841.40879    12257.943 
   96550    297.71149    256.85128   -3061.7094   -2618.8861    886.42604    12252.467 
   96600     304.2036    257.14231   -3071.4102   -2618.9304    689.46428    12247.331 
   96650    293.77832    256.80284   -3060.0947   -2623.1217    1003.3654    12242.486 
   96700    294.57365    256.79948   -3059.9826   -2621.8266    1003.5808    12238.041 
   96750    290.27875    256.73576   -3057.8588   -2626.0912    1161.0501    12234.025 
   96800    288.22371    256.73137   -3057.7125   -2629.0015    1262.6184    12230.525 
   96850    303.05394    257.31818   -3077.2725   -2626.5027    799.56681    12227.571 
   96900    302.31441    257.32066   -3077.3555   -2627.6857    859.85541    12224.953 
   96950    298.37102    257.15766   -3071.9218   -2628.1176    973.98924    12222.697 
   97000    298.77377     257.1993   -3073.3098   -2628.9065    974.43678    12220.829 
   97050    296.21121     257.1754   -3072.5132   -2631.9214    1085.1923    12219.367 
   97100    296.24189    257.21763   -3073.9209   -2633.2836    1078.2056    12218.376 
   97150    294.37996    257.11749   -3070.5829    -2632.715    1027.2161    12217.856 
   97200     307.6234    257.66199    -3088.733   -2631.1665    493.98466    12217.725 
   97250    287.21264    256.94921   -3064.9735   -2637.7665    1230.9544    12217.802 
   97300     289.0823      256.912   -3063.7334   -2633.7454    1276.0639    12218.396 
   97350    289.74931    257.00037   -3066.6789   -2635.6987    1194.2376    12219.553 
   97400     288.8578    256.97926   -3065.9755   -2636.3214    1121.4947    12221.241 
   97450     301.8092    257.57258   -3085.7528   -2636.8344    480.66784    12223.383 
   97500    301.03021    257.58895   -3086.2982   -2638.5386    436.07427    12225.687 
   97550    281.65524     256.8342   -3061.1401   -2642.1993    1097.4834     12228.16 
   97600    285.54129    256.94683   -3064.8944   -2640.1734    976.20085    12231.061 
   97650    301.46161    257.45797   -3081.9322   -2633.5309    423.67318    12234.361 
   97700    303.05647    257.52319   -3084.1065    -2633.333    355.57738    12237.789 
   97750    276.38234    256.51632   -3050.5441   -2639.4463    1301.1769    12241.357 
   97800     300.0668    257.42387   -3080.7956    -2634.469    490.40594    12245.405 
   97850    292.36861     257.1374   -3071.2466   -2636.3705    690.20089    12249.669 
   97900     283.9499    256.75278   -3058.4258   -2636.0719    975.74211     12254.19 
   97950    294.52949    257.19404   -3073.1347   -2635.0444    553.89988    12259.092 
   98000    298.34317    257.38285   -3079.4285   -2635.6656    330.57796    12264.181 
   98050     293.6255    257.14213   -3071.4045   -2634.6588    382.26175    12269.351 
   98100    290.28151    256.97651   -3065.8838    -2634.112    393.13194     12274.61 
   98150    286.21812    256.67197   -3055.7324   -2630.0046    532.61391    12279.967 
   98200    297.74962    257.16586   -3072.1955   -2629.3155    127.38243    12285.451 
   98250    299.21692    257.21027   -3073.6757   -2628.6132    30.183847    12290.901 
   98300    298.99794    257.19003   -3073.0011   -2628.2643   -20.400367    12296.231 
   98350    295.85735    257.11732   -3070.5773   -2630.5119    29.628515    12301.432 
   98400    286.52857     256.6615   -3055.3835   -2629.1939    340.06441    12306.538 
   98450    287.15528    256.64408   -3054.8027    -2627.681    329.03403    12311.681 
   98500    281.12886    256.46054   -3048.6846   -2630.5268     534.2764    12316.892 
   98550    280.66805    256.36941   -3045.6471   -2628.1747    642.05809    12322.276 
   98600    289.55456    256.68909   -3056.3031   -2625.6127    364.36506    12327.885 
   98650    288.39067    256.58275   -3052.7582    -2623.799    389.95109    12333.586 
   98700    289.10711    256.57382   -3052.4608   -2622.4359    318.09465    12339.378 
   98750    291.01151    256.61092   -3053.6975   -2620.8399    224.45093    12345.229 
   98800    289.84109    256.56801   -3052.2671   -2621.1504     254.5003    12351.086 
   98850    284.63904    256.41346   -3047.1154   -2623.7364    451.61781    12356.966 
   98900    277.65397    256.09558   -3036.5192   -2623.5299    659.53739    12362.993 
   98950     297.5726    256.75025   -3058.3416   -2615.7249    11.761538    12369.212 
   99000    294.73737    256.57329    -3052.443   -2614.0435    10.902082    12375.345 
   99050    288.67023    251.27926   -3042.6419   -2613.2668     53.03758    12381.359 
   99100    304.34884     251.7957   -3059.8568    -2607.161   -472.07867    12387.212 
   99150    306.99002    251.85165   -3061.7215   -2605.0971   -539.80139    12392.668 
   99200    304.58703    251.65045   -3055.0151    -2601.965   -455.78965     12397.69 
   99250    299.42309    251.47834   -3049.2779   -2603.9088     -260.061    12402.294 
   99300    276.73917    250.59445    -3019.815   -2608.1864     595.2608     12406.64 
   99350    282.41367    250.73001   -3024.3336   -2604.2646    411.32237    12411.129 
   99400    298.05143    251.24107   -3041.3689     -2598.04   -141.91514    12415.689 
   99450    285.65585    250.71849   -3023.9496   -2599.0581     238.2681    12420.089 
   99500    295.22388    251.09518    -3036.506   -2597.3828   -109.61448    12424.423 
   99550    290.84589    250.91247   -3030.4156   -2597.8044   -2.0508532    12428.585 
   99600    286.66612    250.73535   -3024.5116   -2598.1174    256.73478    12432.606 
   99650    296.99366    251.06865   -3035.6217   -2593.8662   -10.864964    12436.596 
   99700    308.59695     251.4498   -3048.3267   -2589.3121   -410.48741    12440.419 
   99750    302.12051    251.13984   -3037.9947   -2588.6133    -243.5521    12443.881 
   99800    292.45671    250.73948   -3024.6493   -2589.6421    3.2324359    12447.065 
   99850    291.84517    250.67519   -3022.5064   -2588.4089   -52.395297    12450.089 
   99900    291.85074    250.58743   -3019.5811   -2585.4753   -149.66096    12452.939 
   99950    310.01066    251.20109   -3040.0365   -2578.9191   -784.82548    12455.503 
  100000    305.45806    251.06857    -3035.619   -2581.2733   -622.34414    12457.503 
Loop time of 27.1046 on 1 procs for 100000 steps with 500 atoms

Performance: 318.765 ns/day, 0.075 hours/ns, 3689.407 timesteps/s
99.0% CPU use with 1 MPI tasks x 1 OpenMP threads

MPI task timing breakdown:
Section |  min time  |  avg time  |  max time  |%varavg| %total
---------------------------------------------------------------
Pair    | 21.898     | 21.898     | 21.898     |   0.0 | 80.79
Bond    | 0.0065179  | 0.0065179  | 0.0065179  |   0.0 |  0.02
Neigh   | 0.55064    | 0.55064    | 0.55064    |   0.0 |  2.03
Comm    | 0.79025    | 0.79025    | 0.79025    |   0.0 |  2.92
Output  | 0.018158   | 0.018158   | 0.018158   |   0.0 |  0.07
Modify  | 2.7353     | 2.7353     | 2.7353     |   0.0 | 10.09
Other   |            | 1.105      |            |       |  4.08

Nlocal:    500 ave 500 max 500 min
Histogram: 1 0 0 0 0 0 0 0 0 0
Nghost:    1586 ave 1586 max 1586 min
Histogram: 1 0 0 0 0 0 0 0 0 0
Neighs:    14277 ave 14277 max 14277 min
Histogram: 1 0 0 0 0 0 0 0 0 0

Total # of neighbors = 14277
Ave neighs/atom = 28.554
Ave special neighs/atom = 0
Neighbor list builds = 655
Dangerous builds = 0

write_data      ${walker}/final_restart_file
write_data      13/final_restart_file

quit
