LAMMPS (19 May 2017)
Processor partition = 13
  using 1 OpenMP thread(s) per MPI task
# gREM variables
variable        lambda world 1000 1005 1010 1015 1020 1025 1030 1035 1040 1045 1050 1055 1060 1065 1070 1075
variable        walker world 0 1 2 3 4 5 6 7 8 9 10 11 12 13 14 15
variable        replica world 0 1 2 3 4 5 6 7 8 9 10 11 12 13 14 15

variable        T0 equal 300.0
variable        press equal 0.0

units           real
atom_style      full
pair_style      lj/cut 5.0

# LJ particles
read_data       init_restart_file
  orthogonal box = (1.27034 1.27034 1.27034) to (23.7297 23.7297 23.7297)
  1 by 1 by 1 MPI processor grid
  reading atoms ...
  500 atoms
  reading velocities ...
  500 velocities
  0 = max # of 1-2 neighbors
  0 = max # of 1-3 neighbors
  0 = max # of 1-4 neighbors
  1 = max # of special neighbors

#dump            dump all xyz 1000 ${rep}/dump.xyz

fix             fxnpt all npt temp ${T0} ${T0} 1000.0 iso ${press} ${press} 10000.0
fix             fxnpt all npt temp 300 ${T0} 1000.0 iso ${press} ${press} 10000.0
fix             fxnpt all npt temp 300 300 1000.0 iso ${press} ${press} 10000.0
fix             fxnpt all npt temp 300 300 1000.0 iso 0 ${press} 10000.0
fix             fxnpt all npt temp 300 300 1000.0 iso 0 0 10000.0
fix             fxgREM all grem ${lambda} -.03 -30000 fxnpt
fix             fxgREM all grem 1065 -.03 -30000 fxnpt
thermo_modify   press fxgREM_press

thermo          50
thermo_style    custom step temp f_fxgREM pe etotal press vol
WARNING: New thermo_style command, previous thermo_modify settings will be lost (../output.cpp:705)
timestep        1.0

temper/grem     100000 1000 ${lambda} fxgREM fxnpt 10294 98392 #${walker}
temper/grem     100000 1000 1065 fxgREM fxnpt 10294 98392 
Neighbor list info ...
  update every 1 steps, delay 10 steps, check yes
  max neighbors/atom: 2000, page size: 100000
  master list distance cutoff = 7
  ghost atom cutoff = 7
  binsize = 3.5, bins = 7 7 7
  1 neighbor lists, perpetual/occasional/extra = 1 0 0
  (1) pair lj/cut, perpetual
      attributes: half, newton on
      pair build: half/bin/newton
      stencil: half/bin/3d/newton
      bin: standard
Per MPI rank memory allocation (min/avg/max) = 5.728 | 5.728 | 5.728 Mbytes
Step Temp f_fxgREM PotEng TotEng Press Volume 
       0    299.42262      267.507      -3416.9   -2971.5315    1317.0315    11328.967 
      50    222.29473    264.60029   -3320.0098   -2989.3632     4210.473    11329.363 
     100    185.40741    263.29357   -3276.4523   -3000.6728    5604.2047    11331.573 
     150    197.59094    263.74962   -3291.6541   -2997.7525    5050.1675    11336.291 
     200    205.89538     264.0593   -3301.9767   -2995.7229    4707.1084    11343.334 
     250    214.81404    264.32629   -3310.8765   -2991.3569    4318.0608    11352.531 
     300    214.35752    264.20008   -3306.6693   -2987.8288    4254.8226    11363.725 
     350    209.83278    264.03876   -3301.2919   -2989.1816    4246.5152    11376.876 
     400    211.50386    263.94046   -3298.0153   -2983.4194    4003.0666    11391.977 
     450    220.19638    264.20506   -3306.8353   -2979.3099    3509.6336    11408.903 
     500    209.78813    263.77044    -3292.348    -2980.304    3658.1448    11427.479 
     550    213.07746    263.77144   -3292.3815   -2975.4449    3365.1034    11447.712 
     600    216.39419     263.9423   -3298.0766   -2976.2067    2975.4773    11469.488 
     650    219.32913     263.9552   -3298.5068   -2972.2714    2568.2826    11492.614 
     700    215.46563    263.68139   -3289.3798    -2968.891    2449.8924    11516.888 
     750    207.16405    263.25195   -3275.0651   -2966.9243    2477.3189    11542.252 
     800    211.45039    263.39659   -3279.8863   -2965.3699    2003.4227     11568.66 
     850    211.46685    263.27489   -3275.8296   -2961.2887    1670.5953    11595.903 
     900    209.57352    263.12346   -3270.7822   -2959.0574    1417.8235     11623.79 
     950    203.33278    262.77266   -3259.0886   -2956.6465    1382.8627    11652.176 
    1000    216.42476     263.1575   -3271.9165   -2950.0011    642.19615     11680.97 
    1050    213.42034    262.92006    -3264.002   -2946.5554    482.97015    11709.854 
    1100    213.70789    262.85532    -3261.844   -2943.9697    223.42376    11738.667 
    1150    204.83651    262.45244   -3248.4145   -2943.7357    249.78372    11767.281 
    1200    204.00317    262.32729    -3244.243   -2940.8038    28.224359    11795.646 
    1250    201.91552    262.12827   -3237.6088   -2937.2748    -127.3756    11823.659 
    1300    206.65774     262.1147   -3237.1568   -2929.7691   -489.41352    11851.197 
    1350    216.34227    262.35893   -3245.2977    -2923.505   -995.17532    11878.057 
    1400    217.12479    262.22417   -3240.8056   -2917.8489   -1190.4506    11903.981 
    1450    211.46576    261.94749   -3231.5829   -2917.0436   -1282.1131     11928.84 
    1500    217.69111    262.02002   -3234.0006   -2910.2016    -1657.938    11952.558 
    1550    207.36169    261.56323   -3218.7743   -2910.3395   -1436.2843    11974.997 
    1600    209.98129    261.45949   -3215.3164   -2902.9851   -1623.2537    11996.214 
    1650    199.17649    260.92545    -3197.515    -2901.255   -1373.9839    12016.175 
    1700    195.00758    260.59187   -3186.3958   -2896.3368   -1257.3915    12034.981 
    1750    205.81787    260.87423   -3195.8076   -2889.6692   -1735.9618    12052.688 
    1800    218.54508    261.24767   -3208.2557   -2883.1864   -2272.6993    12069.067 
    1850    204.75173    260.57479   -3185.8262   -2881.2735   -1844.8168    12083.916 
    1900    216.86746    260.91391   -3197.1302   -2874.5563   -2287.5937    12097.369 
    1950    217.66925    260.82094   -3194.0312   -2870.2647   -2323.1917    12109.297 
    2000    218.65047    260.76555   -3192.1849   -2866.9589   -2287.4582    12119.668 
    2050    220.38412    255.67071   -3189.0237    -2861.219   -2287.0725    12128.536 
    2100    217.36254    255.48658    -3182.886   -2859.5757   -2160.3165    12135.923 
    2150    215.87967    255.31788   -3177.2626    -2856.158   -2060.7488    12141.911 
    2200     222.1514    255.42578   -3180.8593   -2850.4259   -2242.9238    12146.558 
    2250    229.89575    255.62058   -3187.3525      -2845.4   -2433.2975    12149.807 
    2300    214.68818    254.94585   -3164.8617   -2845.5293    -1835.841     12151.64 
    2350    216.09838     254.9124   -3163.7466   -2842.3166   -1780.2875    12152.311 
    2400    222.00979    254.94732   -3164.9107    -2834.688   -1793.0644    12151.924 
    2450    227.96685    255.04115   -3168.0384   -2828.9549   -1806.2513    12150.481 
    2500    233.04561    255.08072   -3169.3574   -2822.7197   -1781.3929    12147.993 
    2550     227.6338    254.82709   -3160.9031   -2822.3151   -1471.8335    12144.517 
    2600    238.16196    255.17356   -3172.4519    -2818.204   -1697.7929    12140.183 
    2650    231.96635    254.87716   -3162.5719   -2817.5396   -1368.8239    12134.947 
    2700     230.5645    254.75145   -3158.3815   -2815.4343   -1182.7154    12128.972 
    2750    235.54683    254.78981   -3159.6603   -2809.3023   -1158.5476    12122.376 
    2800     241.0536    254.89777   -3163.2591   -2804.7102   -1100.9954    12115.164 
    2850    230.36628    254.32646   -3144.2154    -2801.563   -448.16504    12107.431 
    2900    236.94786    254.48432   -3149.4773   -2797.0353   -458.53628     12099.46 
    2950    253.50819    254.96364   -3165.4547   -2788.3805   -934.50992    12091.254 
    3000    252.74292    254.84892   -3161.6306   -2785.6947   -807.36748    12082.615 
    3050    249.71734    259.67478   -3155.8261   -2784.3905   -510.82846    12073.602 
    3100    251.42128    259.64351   -3154.7838   -2780.8137   -305.64329    12064.371 
    3150    256.44475    259.76381   -3158.7936   -2777.3515   -179.26614    12055.036 
    3200    264.01186    259.90556   -3163.5186    -2770.821   -164.27652    12045.671 
    3250    260.83711    259.66781   -3155.5935   -2767.6181    231.76729    12036.295 
    3300    253.44159    259.27366   -3142.4554   -2765.4803    795.30421     12027.11 
    3350    263.94959    259.62839   -3154.2796   -2761.6746    640.28615    12018.356 
    3400    265.86956     259.6257   -3154.1899   -2758.7291    803.79866     12009.99 
    3450    262.06662    259.28228   -3142.7427   -2752.9384    1205.6902    12002.098 
    3500    270.05728    259.44422   -3148.1407    -2746.451    1136.1772    11994.843 
    3550    262.60884    259.13798   -3137.9327   -2747.3219    1502.9654    11988.233 
    3600      276.247    259.57038    -3152.346   -2741.4495    1205.1541    11982.369 
    3650    273.62767     259.3547   -3145.1567   -2738.1563    1465.7632    11977.151 
    3700    283.47653    259.61066   -3153.6888   -2732.0389    1321.3194    11972.642 
    3750    285.03528    259.49068   -3149.6895   -2725.7211    1467.4667    11968.797 
    3800    274.07858    259.06362    -3135.454   -2727.7828    1983.5163    11965.677 
    3850    282.74877    259.30781   -3143.5936   -2723.0262    1852.8748    11963.476 
    3900    276.94043    258.94875   -3131.6251   -2719.6972    2197.3413    11962.193 
    3950     276.6112    258.79612   -3126.5372    -2715.099    2234.2184    11961.951 
    4000    283.43962    259.06056   -3135.3522   -2713.7572    1896.1888    11962.743 
    4050    285.50077    253.98837   -3132.9457   -2708.2849     1940.548     11964.41 
    4100    293.69767     254.2837   -3142.7901   -2705.9371    1788.4608    11966.922 
    4150     293.0151    254.13056   -3137.6855   -2701.8477    1814.3031    11970.236 
    4200    306.51524    254.37637   -3145.8789   -2689.9607    1419.1485    11974.291 
    4250    297.48098    253.98273   -3132.7576   -2690.2772    1800.8825    11978.946 
    4300    293.35961    253.74317   -3124.7724   -2688.4222    2047.5631    11984.352 
    4350    302.18211    254.13097    -3137.699    -2688.226    1778.8309    11990.597 
    4400     283.5324    253.23144   -3107.7147   -2685.9818     2468.487    11997.631 
    4450    292.61091    253.51597    -3117.199   -2681.9625    2174.2788    12005.699 
    4500    305.62876     253.9363   -3131.2099   -2676.6103    1662.0857    12014.677 
    4550    289.11519    253.24336    -3108.112   -2678.0751    2128.4199    12024.357 
    4600    290.81733    253.29768   -3109.9226   -2677.3538     1993.237    12034.889 
    4650    293.77374    253.27895   -3109.2982    -2672.332    1842.2118    12046.232 
    4700    298.13094    253.34874   -3111.6245   -2668.1774     1715.856    12058.295 
    4750    295.24038    253.15482   -3105.1608   -2666.0131    1780.0139    12071.027 
    4800    300.73371    253.22286   -3107.4286     -2660.11    1460.2386    12084.431 
    4850    306.63136    253.42892   -3114.2974   -2658.2064    1088.6393    12098.336 
    4900    305.48638     253.2804   -3109.3466   -2654.9588    1043.0853    12112.538 
    4950    306.76879    253.32532    -3110.844   -2654.5487    821.46436    12126.996 
    5000     302.6385    253.03326   -3101.1086   -2650.9568    895.61185    12141.621 
    5050    286.92757     257.4699   -3082.3299   -2655.5469    1330.0739    12156.465 
    5100     296.6038    257.74235   -3091.4115   -2650.2359    924.97733    12171.717 
    5150    300.04834    257.71158   -3090.3859   -2644.0867    749.70202    12187.218 
    5200    297.32587    257.47335    -3082.445   -2640.1953    803.39463    12202.842 
    5250    310.56009    257.99917   -3099.9725   -2638.0379    262.43855    12218.561 
    5300    296.87917    257.41242   -3080.4139   -2638.8286    572.73641    12234.211 
    5350    285.58041     256.8225     -3060.75   -2635.9708     856.3006    12249.867 
    5400    284.90775    256.75097   -3058.3656   -2634.5869    749.74498    12265.702 
    5450    309.62398     257.5311     -3084.37   -2623.8278   -140.94895     12281.63 
    5500     306.8572    257.32922   -3077.6408    -2621.214   -118.55777    12297.236 
    5550    293.36461    256.79352   -3059.7839   -2623.4263    250.06127    12312.511 
    5600     292.5972    256.67195   -3055.7317   -2620.5155    204.24405    12327.598 
    5650    296.59141    256.80221   -3060.0736   -2618.9163   -55.858615    12342.506 
    5700    295.86612    256.61157   -3053.7189   -2613.6404   -8.6964807    12357.115 
    5750    290.64818    256.31567   -3043.8558   -2611.5387    142.23459     12371.44 
    5800     304.3387    256.78172   -3059.3905   -2606.7098   -452.56907    12385.533 
    5850    295.78597    256.32452   -3044.1508   -2604.1916   -334.00855    12399.128 
    5900    287.35866    255.99727   -3033.2425   -2605.8182   -219.27428    12412.246 
    5950    294.17269    256.13215   -3037.7382   -2600.1786   -468.96747    12424.935 
    6000    284.19974     255.7012   -3023.3734   -2600.6479   -150.34001    12437.125 
    6050    286.80823    260.79211   -3026.4038   -2599.7983    -294.9111     12448.95 
    6100    293.29671    260.92021   -3030.6736    -2594.417   -482.20895    12460.361 
    6150    293.82443    260.86609   -3028.8696    -2591.828   -534.65329     12471.27 
    6200     297.9564    260.90439   -3030.1463   -2586.9587    -772.3759    12481.628 
    6250    295.46697    260.69647   -3023.2155   -2583.7308   -770.42292    12491.327 
    6300     298.8258    260.74859    -3024.953   -2580.4723   -893.41567    12500.346 
    6350    296.20213    260.63993   -3021.3311   -2580.7529    -833.8513    12508.657 
    6400    290.40551    260.28031   -3009.3438   -2577.3876   -572.76178    12516.291 
    6450    278.27074    259.73414    -2991.138   -2577.2314   -106.99187    12523.415 
    6500    297.93827    260.53779   -3017.9262   -2574.7656   -712.31682    12530.208 
    6550      292.342    260.24581   -3008.1937   -2573.3572   -478.76287    12536.468 
    6600     286.4399    259.93369   -2997.7897   -2571.7321     -211.088    12542.265 
    6650     287.1233    259.84023   -2994.6744   -2567.6002   -180.04827    12547.752 
    6700    285.08064     259.6841   -2989.4701   -2565.4342   -174.63946    12552.964 
    6750    303.31357    260.36006    -3012.002    -2560.846   -806.55789    12557.856 
    6800    291.87607     259.8326   -2994.4201   -2560.2765   -372.78039     12562.19 
    6850    294.36608     259.8314   -2994.3799   -2556.5327   -407.98225    12566.105 
    6900    295.68796    259.77201   -2992.4002   -2552.5868   -398.34014    12569.633 
    6950    291.07952    259.53239   -2984.4131   -2551.4544   -225.81895    12572.782 
    7000    306.68663    260.06897   -3002.2991   -2546.1259   -739.85128    12575.602 
    7050    299.27136    259.66488   -2988.8293   -2543.6858   -384.15749    12577.918 
    7100    300.61123     259.7205   -2990.6833   -2543.5469   -348.75925    12579.833 
    7150    304.09378    259.67404   -2989.1346   -2536.8182   -420.44262    12581.398 
    7200    313.53176     260.0011   -3000.0366   -2533.6819   -731.57027     12582.57 
    7250    306.55521    259.69588   -2989.8625   -2533.8849   -434.35898    12583.227 
    7300    310.47347    259.79245   -2993.0815   -2531.2758   -474.59156    12583.471 
    7350    302.24399    259.42562   -2980.8541   -2531.2891   -186.89881     12583.34 
    7400    297.69155    259.16882   -2972.2939   -2529.5002    71.419161    12582.974 
    7450    309.42862    259.54391   -2984.7969   -2524.5453   -231.76866    12582.505 
    7500    313.07613    259.70218   -2990.0727   -2524.3957   -312.47472    12581.788 
    7550    311.45488    259.52228    -2984.076   -2520.8105   -189.18278    12580.779 
    7600    314.54435    259.59387   -2986.4623   -2518.6014   -276.42484    12579.529 
    7650     312.8785    259.49279   -2983.0929   -2517.7098   -119.13718    12578.003 
    7700    306.25879    259.23975   -2974.6584   -2519.1216    142.08482    12576.303 
    7750    320.71167    259.75418    -2991.806   -2514.7717   -367.83372    12574.518 
    7800    313.02011    259.39332   -2979.7773   -2514.1836   -155.43851     12572.47 
    7850    314.75743    259.63256    -2987.752   -2519.5742   -200.95098    12570.191 
    7900     320.2985    259.76918    -2992.306   -2515.8862   -255.30601    12567.672 
    7950    305.94623    259.15348   -2971.7827   -2516.7109    284.10061    12564.925 
    8000    309.07138    259.21057   -2973.6858   -2513.9655    350.20126    12562.193 
    8050    307.74282    264.11894   -2970.6312    -2512.887    513.17794    12559.577 
    8100    313.10987    264.29623    -2976.541   -2510.8138    332.34134    12557.132 
    8150    321.78777    264.65374   -2988.4581   -2509.8232     59.97223     12554.78 
    8200    320.12581    264.47445   -2982.4817   -2506.3188     170.9682    12552.389 
    8250    324.13471      264.645   -2988.1668    -2506.041   -72.831668    12549.982 
    8300    323.27605    264.66455   -2988.8183   -2507.9697   -92.411556    12547.445 
    8350    313.72712    264.31906    -2977.302   -2510.6567    320.00203    12544.779 
    8400    311.22594       264.23   -2974.3332   -2511.4082    456.96174    12542.184 
    8450     322.6355    264.65144   -2988.3815   -2508.4856    132.62241     12539.72 
    8500    315.86747    264.33855   -2977.9518   -2508.1229    443.59876    12537.272 
    8550     306.2102    263.97437   -2965.8125    -2510.348    794.75533    12534.974 
    8600    308.96816    264.18595    -2972.865   -2513.2983    595.81055    12533.007 
    8650    318.68159    264.65023   -2988.3411   -2514.3264    171.86979    12531.282 
    8700    317.34537    264.54202    -2984.734   -2512.7068    252.47828    12529.585 
    8750    306.42044    264.13823   -2971.2745   -2515.4973    670.44565    12527.951 
    8800    319.53621    264.61914   -2987.3045   -2512.0186     308.4179    12526.543 
    8850     313.7583    264.44359   -2981.4531   -2514.7614    436.63588    12525.243 
    8900    304.91209    264.18537   -2972.8456    -2519.312    712.86407    12524.092 
    8950    312.21622    264.44067   -2981.3558   -2516.9578    477.87388     12523.22 
    9000    322.75115    264.95391   -2998.4636   -2518.3958    33.691885    12522.507 
    9050    318.96145    264.83699   -2994.5665   -2520.1355    148.31546    12521.733 
    9100    313.30718    264.53146   -2984.3819   -2518.3612    348.88214     12520.94 
    9150    313.17233    264.62693   -2987.5644   -2521.7443    320.28132    12520.232 
    9200    310.27108    264.61594    -2987.198   -2525.6933    415.90449     12519.61 
    9250    310.15942    264.65335    -2988.445   -2527.1064    404.61106    12519.104 
    9300    312.63694    264.73125   -2991.0418   -2526.0181    252.32118    12518.723 
    9350     315.3388    264.90391   -2996.7971   -2527.7545    102.10771    12518.377 
    9400    310.80647    264.85778   -2995.2595   -2532.9584    248.99504    12517.975 
    9450    303.06965     264.7282   -2990.9398   -2540.1467    366.86989    12517.609 
    9500    310.51434    264.98489   -2999.4963   -2537.6297   -21.410116    12517.311 
    9550    305.55811    264.86465   -2995.4882   -2540.9937    88.963088    12516.915 
    9600    300.90245    264.78304   -2992.7679   -2545.1983    250.89525    12516.469 
    9650    304.27069    264.86648   -2995.5493   -2542.9697    151.59834    12516.063 
    9700    314.39464    265.30588   -3010.1959   -2542.5577    -189.6138    12515.615 
    9750     296.5577    264.71819   -2990.6064   -2549.4993    358.99309    12515.009 
    9800    295.93263    264.69534   -2989.8448   -2549.6674    274.35889    12514.461 
    9850    291.83137    264.55316   -2985.1055   -2551.0284    295.52411    12513.984 
    9900    300.10654    264.94851   -2998.2836   -2551.8978    17.036021    12513.539 
    9950    282.90902    264.29168   -2976.3893   -2555.5836    704.23495    12513.063 
   10000    283.39741    264.32115   -2977.3715   -2555.8394    761.81876     12512.85 
   10050     299.7536    265.12419   -3004.1398    -2558.279    113.80718     12512.93 
   10100    294.21683    264.94234   -2998.0779   -2560.4526    219.81552    12513.024 
   10150    291.14477    264.80791   -2993.5968   -2560.5411    224.94961    12513.133 
   10200    306.59471    265.46259   -3015.4197   -2559.3834   -448.19868     12513.22 
   10250     305.0107    265.50218   -3016.7394   -2563.0591   -502.97429    12512.989 
   10300    293.26428    264.97144   -2999.0481   -2562.8397   -18.793592    12512.391 
   10350    295.72318    265.20324   -3006.7745   -2566.9087   -125.19714    12511.644 
   10400    308.55432    265.70775   -3023.5915   -2564.6403   -638.24705    12510.705 
   10450    301.22844    265.45336   -3015.1121   -2567.0576   -452.67416    12509.335 
   10500     290.0662    265.12934   -3004.3114   -2572.8599   -221.38764    12507.599 
   10550    288.27233    265.10498   -3003.4993   -2574.7161    -210.8592    12505.626 
   10600    289.95629    265.25873   -3008.6244   -2577.3364   -230.31355    12503.443 
   10650    294.31484    265.46985   -3015.6618   -2577.8908   -262.77275    12501.022 
   10700    292.38545    265.41093   -3013.6976   -2578.7964   -247.77242    12498.376 
   10750    303.02017    265.84891   -3028.2971   -2577.5775   -661.56163    12495.459 
   10800    281.67112    265.05387   -3001.7955   -2582.8311    10.660898    12492.146 
   10850    290.37398    265.42571   -3014.1903    -2582.281   -216.71019    12488.687 
   10900    280.03841    265.02067    -3000.689   -2584.1531    243.81296     12485.06 
   10950    268.50842    264.64607   -2988.2025   -2588.8165    597.10062     12481.48 
   11000    286.51198    265.29626   -3009.8754   -2583.7105   -176.07229    12478.112 
   11050    313.49053    266.34808   -3044.9361   -2578.6427   -1133.1875     12474.54 
   11100    296.69186    265.71403   -3023.8011   -2582.4945   -465.14094    12470.332 
   11150    295.02813    265.65364    -3021.788    -2582.956   -157.65719    12465.735 
   11200    283.88516    265.23624   -3007.8746    -2585.617    278.75025    12460.994 
   11250    306.67258    266.18183   -3039.3942    -2583.242   -501.76377    12456.238 
   11300    294.65618    265.67017    -3022.339   -2584.0602   -93.102959    12451.199 
   11350    296.81387    265.83199   -3027.7332    -2586.245   -188.86398    12445.982 
   11400     293.3247    265.80584   -3026.8612   -2590.5629   -50.862882    12440.592 
   11450    282.09682    265.34879   -3011.6263   -2592.0287    454.87116     12435.12 
   11500    288.89457     265.7069   -3023.5633   -2593.8545    290.87395    12429.795 
   11550    297.71076    266.11641   -3037.2136   -2594.3914    7.0790891    12424.553 
   11600    296.09002    266.01007    -3033.669   -2593.2575    179.86224    12419.264 
   11650    288.46356    265.61732   -3020.5775   -2591.5098    612.83021    12414.014 
   11700    282.40572    265.44564   -3014.8548   -2594.7976      812.701    12409.022 
   11750     296.5442    266.01034    -3033.678   -2592.5909    210.74654    12404.368 
   11800    308.25853    266.51607   -3050.5356   -2592.0244   -246.87644    12399.764 
   11850    297.66054    266.03662   -3034.5539   -2591.8064    169.08889    12394.985 
   11900    293.20746    265.87878   -3029.2927   -2593.1688    360.95727    12390.199 
   11950    289.25767    265.73914   -3024.6379    -2594.389    533.63934     12385.54 
   12000    292.80681    265.87824   -3029.2748   -2593.7468     471.4947     12381.08 
   12050    298.88371    266.08481   -3036.1604   -2591.5935    370.01654    12376.795 
   12100    298.41631    266.06743   -3035.5809   -2591.7093    435.47026     12372.65 
   12150     287.7281    265.60984   -3020.3281   -2592.3543    797.74369     12368.67 
   12200    287.92844    265.65161   -3021.7202   -2593.4485    830.95919     12365.03 
   12250    298.79646    266.01807   -3033.9356   -2589.4985      596.728    12361.762 
   12300     294.1588    265.90478   -3030.1595   -2592.6206    739.67758    12358.764 
   12350    301.33657    266.10841    -3036.947   -2588.7317    489.01229    12356.066 
   12400    309.60157    266.45004   -3048.3348   -2587.8259    253.13049    12353.543 
   12450    314.33682    266.66171   -3055.3905   -2587.8383    138.21509    12351.071 
   12500    307.81155    266.32343   -3044.1145   -2586.2681    489.11211    12348.592 
   12550    283.86665    265.42398   -3014.1327   -2591.9026    1391.0159    12346.329 
   12600     280.7295    265.28178   -3009.3926   -2591.8287    1559.2528    12344.729 
   12650    297.13074    265.92029   -3030.6762   -2588.7168    955.01535    12343.865 
   12700    296.07962    265.86378   -3028.7926   -2588.3966    970.27779    12343.483 
   12750     293.3238     265.7121   -3023.7368   -2587.4399    1114.1641    12343.542 
   12800     302.7696    266.07735   -3035.9118    -2585.565      778.551    12344.096 
   12850    311.57143    266.38556   -3046.1854   -2582.7465    439.02864    12344.979 
   12900     305.7945    266.19729   -3039.9097   -2585.0635    628.99383    12346.033 
   12950    294.87759    265.65748    -3021.916   -2583.3079    1073.4793    12347.354 
   13000    302.87139    266.02325   -3034.1084   -2583.6102    800.53187    12349.125 
   13050    289.43751    265.55728   -3018.5762   -2588.0598    1318.9482    12351.289 
   13100    289.99818    265.51799   -3017.2662   -2585.9159    1289.3645    12354.045 
   13150    298.29212    265.73016   -3024.3388   -2580.6519    946.01603    12357.403 
   13200    308.44117    266.17707   -3039.2357   -2580.4528    588.29572    12361.155 
   13250    308.46846    266.13342   -3037.7807   -2578.9572    589.97688    12365.151 
   13300    297.84976    265.75333    -3025.111   -2582.0821     936.9171     12369.38 
   13350      288.897    265.37377   -3012.4589   -2582.7465    1211.2578    12374.013 
   13400    307.97854    266.00901   -3033.6337   -2575.5389    604.62057    12379.161 
   13450    298.08788    265.57378   -3019.1261    -2575.743    958.15033      12384.6 
   13500    294.66772    265.48296   -3016.0988   -2577.8029    983.35144     12390.44 
   13550    314.57458    266.22493    -3040.831   -2572.9251    246.35178    12396.665 
   13600    311.02019    265.97305   -3032.4351   -2569.8162    368.46658    12402.953 
   13650    303.11419    265.68646    -3022.882   -2572.0226    598.43471    12409.326 
   13700    300.16891    265.51856   -3017.2853   -2570.8068    628.49844    12415.911 
   13750    302.19456    265.70452    -3023.484   -2573.9925    390.22862    12422.717 
   13800    286.43073    265.07768   -3002.5892   -2576.5452    836.48304    12429.657 
   13850     292.4895    265.29179   -3009.7263   -2574.6703    536.90656    12436.891 
   13900    299.62907    265.49345   -3016.4484   -2570.7728    219.18338    12444.302 
   13950    290.86988    265.17019   -3005.6731   -2573.0262    505.04209    12451.735 
   14000    291.10246    265.11431   -3003.8105   -2570.8176      472.226    12459.313 
   14050    297.74949    265.34015   -3011.3382   -2568.4584    189.77812    12467.018 
   14100    288.97546    265.02385    -3000.795   -2570.9659    456.93283    12474.739 
   14150    298.08954    265.37258   -3012.4192   -2569.0336    185.19709    12482.567 
   14200    299.95139    265.42424   -3014.1413   -2567.9863    41.430916    12490.391 
   14250    303.59996    265.53091   -3017.6968   -2566.1149   -128.04999    12498.096 
   14300    299.37612    265.34643   -3011.5477   -2566.2485   -54.316548    12505.628 
   14350    299.26047    265.26874   -3008.9581   -2563.8308   -74.507525    12512.992 
   14400    292.44738    264.95491    -2998.497   -2563.5037    105.08972    12520.207 
   14450    312.60786    265.59257   -3019.7522   -2554.7717   -584.63181    12527.287 
   14500    296.25339    264.91593   -2997.1976   -2556.5431   -141.51093    12533.972 
   14550    303.19914    265.12871   -3004.2903   -2553.3046   -403.56017    12540.399 
   14600    303.23639    265.20912   -3006.9708   -2555.9296   -519.08228    12546.483 
   14650    291.20794     264.6823   -2989.4098   -2556.2601   -145.78075     12552.17 
   14700    314.66049    265.59938   -3019.9795   -2551.9458   -950.51006    12557.558 
   14750    300.88174    265.02922   -3000.9739   -2553.4351    -616.3243    12562.365 
   14800    312.52931    265.42794   -3014.2648   -2549.4011   -1023.5921    12566.611 
   14850    292.85399    264.58267   -2986.0891    -2550.491   -374.79232    12570.232 
   14900    298.31508    264.89356    -2996.452   -2552.7309   -575.65418    12573.462 
   14950    301.58585    265.01454   -3000.4847   -2551.8986   -712.00103    12576.238 
   15000    307.42618    265.13852   -3004.6173   -2547.3441   -827.01895    12578.473 
   15050     300.0197    259.83823   -2994.6076    -2548.351   -550.34584     12580.13 
   15100    298.25946    259.75696   -2991.8988   -2548.2605   -432.73594    12581.333 
   15150     299.6478    259.81289    -2993.763   -2548.0596   -335.53417    12582.155 
   15200    294.70751    259.52155   -2984.0515   -2545.6965   -104.97904    12582.678 
   15250    304.42862    259.89032   -2996.3439   -2543.5293   -542.58759    12582.969 
   15300    290.08292    259.32206   -2977.4021   -2545.9258    -258.0678    12582.881 
   15350    296.01394    259.56322   -2985.4405   -2545.1422    -521.2946    12582.478 
   15400    303.36708    259.83041    -2994.347   -2543.1114   -710.55764     12581.65 
   15450    317.02711    260.35414   -3011.8047   -2540.2509   -1068.8542    12580.278 
   15500    302.90245    259.73059   -2991.0198   -2540.4754   -460.89368    12578.224 
   15550    296.12677    259.51576   -2983.8587   -2543.3925   -82.549012    12575.745 
   15600    299.02737    259.52383   -2984.1275    -2539.347   -79.550827    12573.096 
   15650    299.57022    259.48743   -2982.9142   -2537.3262   -31.238584    12570.288 
   15700    296.78865    259.42515   -2980.8384   -2539.3878    8.3743647     12567.35 
   15750    309.88794    259.92832   -2997.6106   -2536.6758   -421.09558    12564.281 
   15800    320.53986    260.27192   -3009.0639   -2532.2851   -648.06832     12560.86 
   15850    303.93732    259.69087   -2989.6957    -2537.612   -74.404246    12557.007 
   15900    304.54893    259.71359    -2990.453   -2537.4596   -59.317653    12552.961 
   15950    309.00886    259.83856   -2994.6185   -2534.9913   -175.82771    12548.753 
   16000    309.50742    259.87119   -2995.7062   -2535.3374   -158.39243    12544.335 
   16050    307.20915    259.74963   -2991.6542   -2534.7039    5.6583529    12539.739 
   16100    320.34481    260.24275   -3008.0916    -2531.603   -362.77872     12534.99 
   16150    302.02625    259.48717   -2982.9056   -2533.6645     192.9913     12529.99 
   16200    314.62813    259.97509   -2999.1698   -2531.1843   -253.41293    12524.925 
   16250    305.89465    259.63689   -2987.8964   -2532.9013    70.203903    12519.669 
   16300     307.6502    259.76027   -2992.0091   -2534.4028    178.84135    12514.318 
   16350     313.8176    260.02798   -3000.9328   -2534.1529    73.496027    12508.958 
   16400    310.19689    260.02678   -3000.8926   -2539.4982    256.95206    12503.539 
   16450    313.47971    260.06495    -3002.165   -2535.8877    240.84723     12498.15 
   16500    321.08787     260.3456     -3011.52   -2533.9261    67.406545    12492.783 
   16550      298.896    259.44842   -2981.6141    -2537.029    867.66044    12487.419 
   16600    314.13825    260.07391   -3002.4637   -2535.2068    395.69725    12482.361 
   16650    310.03773    259.97846   -2999.2821   -2538.1245    545.57607    12477.469 
   16700    311.39468    260.02914   -3000.9713   -2537.7953    569.59641    12472.763 
   16750    300.89454    259.73766   -2991.2552   -2543.6974    905.30301    12468.296 
   16800    306.68101    259.85158   -2995.0526   -2538.8879    758.26628    12464.199 
   16850    309.50909    260.05036   -3001.6787   -2541.3073    588.89415    12460.433 
   16900     324.3091    260.57495   -3019.1649   -2536.7797    87.037942    12456.862 
   16950     323.0026     260.5606   -3018.6866   -2538.2447    173.76894    12453.258 
   17000    305.93826    259.88873   -2996.2909   -2541.2309     835.1464    12449.662 
   17050    312.05019    260.17365   -3005.7884   -2541.6374    684.33756    12446.373 
   17100    310.85329    260.13562   -3004.5205   -2542.1498    631.76932    12443.396 
   17150    323.18629    260.65326   -3021.7752   -2541.0601    149.59351     12440.63 
   17200    325.76028     260.8158   -3027.1935   -2542.6497    125.00336    12437.848 
   17250    314.02682    260.42758   -3014.2527   -2547.1616    547.53366    12435.031 
   17300     316.9786     260.6468   -3021.5599   -2550.0783    373.28244     12432.36 
   17350    316.08008    260.70012   -3023.3374   -2553.1922    339.09358    12429.803 
   17400    301.81596    260.17408   -3005.8026   -2556.8742    782.26707    12427.354 
   17450    304.70535    260.35754   -3011.9178   -2558.6917    570.33051    12425.185 
   17500    308.61389    260.62948   -3020.9827    -2561.943    353.25073    12423.234 
   17550    303.06981    260.43258   -3014.4194    -2563.626    580.02536    12421.387 
   17600    311.80809    260.84785   -3028.2615   -2564.4706    292.70035    12419.714 
   17650    315.75239    260.98451    -3032.817   -2563.1593    173.91798    12418.107 
   17700    297.58022    260.38094   -3012.6981   -2570.0701    720.50702    12416.517 
   17750     304.7126    260.70396   -3023.4654   -2570.2285    451.14851     12415.14 
   17800     300.5759    260.62408   -3020.8027   -2573.7188    499.08458    12413.942 
   17850    303.86137    260.78322   -3026.1074   -2574.1367    297.01377    12412.881 
   17900    303.11442    260.84701   -3028.2337    -2577.374    255.67638    12411.879 
   17950    299.26249    260.74523   -3024.8411   -2579.7108    417.67128    12410.913 
   18000    291.23825    260.46943   -3015.6478    -2582.453    587.31502     12410.08 
   18050    315.71604    261.43073    -3047.691   -2578.0873    -350.6248    12409.373 
   18100    295.71958    260.68114   -3022.7046   -2582.8442     267.3177    12408.443 
   18150      293.093    260.66826   -3022.2754   -2586.3218    363.94099    12407.518 
   18200    313.18145    261.56857   -3052.2855   -2586.4519   -334.71434    12406.632 
   18250    302.32409     261.1253   -3037.5099   -2587.8257    29.417568    12405.508 
   18300    303.49182    261.19925   -3039.9751    -2588.554    36.595364     12404.25 
   18350    298.82435     261.0567   -3035.2233   -2590.7447    204.93387    12402.924 
   18400    301.64749    261.15246   -3038.4153   -2589.7375    96.852235     12401.58 
   18450    298.32566     261.0316   -3034.3868     -2590.65    128.41204    12400.198 
   18500    301.06486    261.12591   -3037.5303   -2589.7191   -11.224718    12398.751 
   18550      298.255    260.99494   -3033.1648   -2589.5331    74.775546    12397.197 
   18600    317.17507    261.75669   -3058.5562   -2586.7823   -551.94777    12395.529 
   18650    305.56397    261.42044    -3047.348   -2592.8447   -131.10516     12393.49 
   18700    280.55251    260.48306   -3016.1018   -2598.8012    697.87494    12391.287 
   18750    297.60353    261.13858   -3037.9528   -2595.2901    71.945301    12389.272 
   18800    304.22597    261.41815   -3047.2717   -2594.7586   -173.66452    12387.205 
   18850    302.58303     261.3843   -3046.1434   -2596.0741   -93.852214    12384.938 
   18900    294.61953     261.0686   -3035.6201   -2597.3959    144.62032    12382.526 
   18950    291.80161     261.1009   -3036.6967   -2602.6639    249.35902    12380.068 
   19000     275.1284    260.46186   -3015.3955   -2606.1628    867.72569    12377.682 
   19050    286.79984    260.91776    -3030.592    -2603.999     484.9072    12375.611 
   19100    283.94429    260.86688   -3028.8959   -2606.5503    563.74704    12373.751 
   19150    285.87236    261.01066   -3033.6886   -2608.4752    544.91174    12372.086 
   19200    298.36656    261.44042   -3048.0139   -2604.2163    170.12874    12370.601 
   19250    305.15969    261.72002    -3057.334   -2603.4321   -108.34029    12369.111 
   19300    301.45542     261.5525     -3051.75   -2603.3579    13.124671    12367.474 
   19350    306.32621    261.84552   -3061.5175   -2605.8804    -176.5176     12365.71 
   19400    304.53504    261.70304   -3056.7681   -2603.7953   -110.00526    12363.757 
   19450    295.42803    261.31967    -3043.989   -2604.5622    246.04542    12361.646 
   19500    284.22084    260.92853   -3030.9511   -2608.1942    622.87347     12359.57 
   19550    296.25126    261.45347   -3048.4492   -2607.7979    194.29431    12357.689 
   19600    299.21378    261.50354    -3050.118   -2605.0602    161.67369     12355.83 
   19650    290.38949    261.25651   -3041.8836   -2609.9513    466.71594    12353.969 
   19700    296.86365    261.51979   -3050.6596   -2609.0974    252.03496    12352.233 
   19750    294.08506    261.45407   -3048.4691   -2611.0398    418.92226    12350.555 
   19800    291.93661    261.25381   -3041.7936     -2607.56    529.24591    12349.005 
   19850    298.57578    261.51238   -3050.4128   -2606.3039    188.38609    12347.616 
   19900    300.51486    261.57231   -3052.4105   -2605.4174    211.77824    12346.239 
   19950    286.95979    260.95857   -3031.9523   -2605.1213    822.84558    12344.911 
   20000    298.91515    261.41287   -3047.0957   -2602.4821    398.40788    12343.873 
   20050    299.61257    261.43334   -3047.7779   -2602.1269    331.88938     12342.98 
   20100    295.42962    261.29539   -3043.1798   -2603.7506    489.77954    12342.168 
   20150    292.18005     261.2124   -3040.4135   -2605.8178    668.97443    12341.524 
   20200     305.9841    261.73595    -3057.865   -2602.7369    225.47743    12341.111 
   20250    304.28775    261.70829   -3056.9431   -2604.3381    192.95196    12340.732 
   20300    285.24894     261.0621   -3035.4034   -2611.1172    763.42242    12340.379 
   20350    286.35569    261.06631   -3035.5437   -2609.6114    816.41222    12340.322 
   20400    294.39337    261.40777   -3046.9255   -2609.0377    569.64445    12340.604 
   20450    302.79266    261.65518   -3055.1726   -2604.7915     312.7353    12341.082 
   20500    294.36454    261.27934   -3042.6447   -2604.7998    580.36824    12341.639 
   20550    304.49849    261.68716   -3056.2388   -2603.3203    187.87794    12342.341 
   20600    284.13122    260.96805   -3032.2684   -2609.6447     813.5098    12343.105 
   20650    293.25483    261.24637   -3041.5458   -2605.3514    505.50065    12344.149 
   20700    302.41809     261.5426     -3051.42    -2601.596    193.44957    12345.363 
   20750    286.09668     260.9102   -3030.3401   -2604.7929    742.59621    12346.627 
   20800    299.50364    261.42172   -3047.3908   -2601.9018    322.27603    12348.112 
   20850    296.68847    261.27217   -3042.4055   -2601.1039    386.70888    12349.691 
   20900    297.35775     261.2203   -3040.6767   -2598.3796    389.93797    12351.346 
   20950     289.7536    260.93152   -3031.0508   -2600.0643    721.16784    12353.124 
   21000    296.19039    261.12855   -3037.6184   -2597.0576    614.25248    12355.161 
   21050    297.67414    261.09406   -3036.4686   -2593.7009    576.18612    12357.449 
   21100    310.74207    261.60362   -3053.4539   -2591.2486    33.042363    12359.921 
   21150    314.12471    261.56817   -3052.2722   -2585.0356   -123.43872    12362.306 
   21200    298.70767     260.9371   -3031.2367   -2586.9317    417.44286    12364.527 
   21250    304.53137    261.15042   -3038.3473     -2585.38    319.27652    12366.796 
   21300    297.88179    260.86543   -3028.8477   -2585.7711     550.0832    12369.156 
   21350    316.69515    261.55856   -3051.9519   -2580.8918   -157.84416     12371.64 
   21400     318.2794    261.56048   -3052.0159   -2578.5994   -158.21795    12373.943 
   21450     295.2897    260.61272   -3020.4241   -2581.2031    771.79386     12376.09 
   21500    297.80407    260.70313   -3023.4376   -2580.4766    747.49473    12378.482 
   21550    311.79482      261.165   -3038.8333   -2575.0622    294.78373    12381.146 
   21600    303.70243    260.75359   -3025.1197   -2573.3854    584.29974    12383.906 
   21650    303.23249    260.74703   -3024.9008   -2573.8655    509.00708    12386.859 
   21700     317.3231    261.20472   -3040.1575   -2568.1634    7.9367572    12389.941 
   21750      296.775    260.34191    -3011.397   -2569.9667    746.76987    12392.988 
   21800    312.03164    260.88482   -3029.4941   -2565.3706    372.41049    12396.262 
   21850    310.83691    260.73829   -3024.6097   -2562.2633    394.88394    12399.646 
   21900    306.12209     260.5304   -3017.6799   -2562.3465    547.28745    12403.108 
   21950    304.49944    260.43735   -3014.5783   -2561.6585    596.12115    12406.756 
   22000    320.66403    261.05786    -3035.262   -2558.2985    6.2691787    12410.568 
   22050     318.5517    260.88954   -3029.6512   -2555.8297    140.24235    12414.291 
   22100    303.15432     260.3386   -3011.2868   -2560.3677    797.90661    12417.994 
   22150    308.19988    260.45321   -3015.1069    -2556.683    643.64279    12421.978 
   22200    317.87322     260.8778   -3029.2601   -2556.4478    142.10836     12426.18 
   22250    304.57267    260.30912    -3010.304   -2557.2752    574.27468    12430.377 
   22300    304.42094    260.19445   -3006.4817   -2553.6787    636.82339    12434.754 
   22350    301.16718    259.93269   -2997.7562   -2549.7928    773.44939    12439.382 
   22400    300.43367    259.99524   -2999.8415   -2552.9691    728.18374    12444.304 
   22450    308.07359    260.27473   -3009.1576   -2550.9215    367.54333    12449.503 
   22500    323.65885    260.82362   -3027.4541   -2546.0361   -206.50188    12454.742 
   22550    315.05322    260.53718   -3017.9061   -2549.2884   -32.763254    12459.789 
   22600    311.81937    260.32486   -3010.8286    -2547.021    91.136189    12464.679 
   22650    310.70002    260.33604   -3011.2013   -2549.0585    144.61535    12469.479 
   22700     310.1774    260.32503   -3010.8342   -2549.4688    149.51042    12474.253 
   22750    294.92705    259.65944   -2988.6479   -2549.9663    707.81903    12479.026 
   22800    302.86797    259.93864   -2997.9546   -2547.4614    463.46149     12484.01 
   22850    300.27329    259.89297   -2996.4324   -2549.7987    498.34785    12489.157 
   22900    304.20458    259.94241   -2998.0804   -2545.5992    439.67982     12494.45 
   22950    298.94959    259.70811   -2990.2705   -2545.6056    554.82781    12499.879 
   23000    303.81105    259.95956    -2998.652   -2546.7561    189.03564    12505.455 
   23050    309.28604     260.2387   -3007.9567   -2547.9172    -227.0799    12511.025 
   23100    317.92683    260.46761    -3015.587   -2542.6949   -567.44618    12516.339 
   23150    311.79643    260.23856   -3007.9521   -2544.1785   -338.78754    12521.216 
   23200    308.92609    260.21808   -3007.2694   -2547.7653   -223.55256    12525.755 
   23250    304.76997    260.07463   -3002.4876   -2549.1653   -123.48079    12530.042 
   23300    304.86767    260.08902   -3002.9675   -2549.4999   -187.32626     12534.12 
   23350     301.1255    259.95186   -2998.3954    -2550.494   -95.707045    12537.968 
   23400    294.12761    259.55542   -2985.1806   -2547.6881    100.69116     12541.65 
   23450    310.84582     260.1735   -3005.7835   -2543.4239   -657.10559    12545.212 
   23500    321.57221    260.61024   -3020.3415   -2542.0272   -1125.3149    12548.271 
   23550    299.10559    259.78207   -2992.7357   -2547.8388   -410.79049    12550.628 
   23600    302.20089    259.95617    -2998.539    -2549.038   -467.65182    12552.558 
   23650    293.14023    259.60631   -2986.8768    -2550.853   -170.11629    12554.119 
   23700    305.37305    260.00853   -3000.2843    -2546.065   -598.07468    12555.404 
   23750     294.1903    259.60233   -2986.7442   -2549.1584   -316.48282    12556.277 
   23800    299.33166    259.83127   -2994.3757   -2549.1426    -470.9682    12556.814 
   23850    311.32169    260.31657   -3010.5523   -2547.4849   -817.79557    12556.941 
   23900    294.48866    259.66632   -2988.8773   -2550.8477   -271.39342    12556.533 
   23950    301.97329    260.02913   -3000.9709   -2551.8085   -535.57082    12555.781 
   24000    310.73126    260.30763   -3010.2544   -2548.0652   -790.40234    12554.605 
   24050    301.49679    260.01787   -3000.5956   -2552.1419   -479.72067    12552.894 
   24100    300.98591    260.07352   -3002.4506   -2554.7568   -476.49165    12550.751 
   24150    291.29312    259.78566   -2992.8553   -2559.5789   -228.75654    12548.237 
   24200    296.67303    260.11973   -3003.9909   -2562.7123   -458.31584    12545.435 
   24250    295.58983      260.162      -3005.4   -2565.7325   -425.55232    12542.265 
   24300    283.12953    259.77892   -2992.6308   -2571.4971   -22.389479    12538.755 
   24350    293.20885      260.179   -3005.9665   -2569.8406   -377.80807    12535.073 
   24400    306.01675     260.6464   -3021.5467   -2566.3699   -837.17654    12531.045 
   24450    295.48705    260.42854   -3014.2846     -2574.77   -444.56945    12526.471 
   24500    288.42338    260.15745   -3005.2483   -2576.2404   -135.92424    12521.516 
   24550    287.93769    260.22289   -3007.4298   -2579.1443   -208.58872     12516.36 
   24600    295.76334     260.6766   -3022.5533   -2582.6277   -564.49162    12510.967 
   24650    294.92047    260.61086   -3020.3619   -2581.6901   -476.60926    12505.175 
   24700    300.22345    260.94191   -3031.3969   -2584.8372    -792.1075    12498.977 
   24750    302.74174     261.0657   -3035.5233   -2585.2179   -958.47195    12492.209 
   24800    273.07021    260.05276   -3001.7587   -2595.5875    7.0029493    12484.855 
   24850    279.65237    260.32669   -3010.8898   -2594.9281   -166.30812    12477.337 
   24900    290.22242    260.75776   -3025.2586   -2593.5747    -491.5545    12469.621 
   24950    296.39802    261.16607   -3038.8689   -2597.9993   -653.32278    12461.527 
   25000    304.93222    261.52765   -3050.9217   -2597.3582   -895.95447    12452.956 
   25050    298.37928    261.42348   -3047.4493   -2603.6327   -657.69179    12443.797 
   25100    289.01576    261.04919   -3034.9731   -2605.0841   -296.29881     12434.18 
   25150    290.96058    261.21609   -3040.5363   -2607.7545   -382.17808    12424.275 
   25200    287.08086    261.04935   -3034.9783   -2607.9673   -284.21378    12414.069 
   25250    284.68648    260.99406   -3033.1354   -2609.6858   -164.48366    12403.612 
   25300    286.05455    261.09914    -3036.638   -2611.1536   -13.639959    12392.973 
   25350    292.97433     261.3491     -3044.97   -2609.1929   -87.067721    12382.225 
   25400    288.57592    261.29392   -3043.1308    -2613.896    28.413511    12371.372 
   25450    307.93025     262.0798   -3069.3268   -2611.3039   -487.67816    12360.403 
   25500    287.77465    261.35843    -3045.281    -2617.238    359.44563    12349.159 
   25550    279.87176    261.04325    -3034.775   -2618.4869    754.72444    12338.008 
   25600    303.49473    261.93694   -3064.5647   -2613.1393   -7.5376897    12327.129 
   25650    283.84868    261.22595   -3040.8651   -2618.6617    644.88544    12316.262 
   25700     287.5612    261.41035   -3047.0117   -2619.2863    713.25026    12305.633 
   25750    299.67816    261.89664   -3063.2212   -2617.4726    484.11761    12295.321 
   25800    298.25929    261.81302   -3060.4341    -2616.796    677.82659    12285.219 
   25850    284.63841    261.30301   -3043.4335   -2620.0555    1249.8661    12275.433 
   25900    294.92874    261.67269   -3055.7562    -2617.072     990.2796    12266.224 
   25950     300.0488    261.94106   -3064.7019    -2618.402    836.74459    12257.477 
   26000    296.57862     261.8106   -3060.3533   -2619.2151    967.06843     12249.13 
   26050    321.70425    262.70637   -3090.2124   -2611.7017    254.35026    12241.183 
   26100    300.31645     261.8619   -3062.0633   -2615.3654    1191.7968    12233.389 
   26150    294.70346    261.70534   -3056.8447   -2618.4957    1443.5509    12226.128 
   26200    318.08685    262.61038   -3087.0126   -2613.8825    671.46714    12219.508 
   26250    287.29494    261.51091   -3050.3637   -2623.0342    1712.2328    12213.275 
   26300     289.8623    261.62229   -3054.0765   -2622.9283    1672.5628    12207.807 
   26350    298.33137    261.93882   -3064.6273    -2620.882    1423.1187    12203.166 
   26400    303.80224    262.18301   -3072.7669   -2620.8841    1302.9502    12199.203 
   26450    298.78858    262.06232   -3068.7442   -2624.3188    1480.9348    12195.872 
   26500    295.70363    261.79196   -3059.7322   -2619.8954    1636.0948    12193.257 
   26550     313.1545    262.48047   -3082.6823   -2616.8887    1085.1204    12191.366 
   26600    305.29439    262.20367   -3073.4555   -2619.3533    1362.0757    12190.016 
   26650    315.38319     262.5545     -3085.15   -2616.0414    1030.0129    12189.252 
   26700    308.32606     262.4047   -3080.1567   -2621.5451    1192.2311    12188.957 
   26750      294.243    261.80545   -3060.1816   -2622.5174     1663.434    12189.213 
   26800     308.2341    262.34411   -3078.1369    -2619.662    1123.6212    12190.207 
   26850    295.20002    261.90562   -3063.5207   -2624.4331    1501.7625    12191.753 
   26900    279.60555    261.31679    -3043.893    -2628.001    1998.9413    12194.011 
   26950    302.04705    262.15079   -3071.6931    -2622.421    1241.8757    12197.173 
   27000    311.65936    262.46265   -3082.0884   -2618.5187    949.92619    12200.908 
   27050    303.00511    257.14136   -3071.3786   -2620.6815    1186.2799    12205.068 
   27100    305.92282    257.31952   -3077.3174   -2622.2804    1011.5021    12209.702 
   27150    300.17869    257.05748   -3068.5826   -2622.0896    1189.7846    12214.758 
   27200    311.33252    257.56514   -3085.5046    -2622.421    638.95243    12220.277 
   27250    303.32169    257.26176    -3075.392    -2624.224    810.84191    12226.055 
   27300    305.58492    257.30644   -3076.8814    -2622.347    737.04269    12232.103 
   27350    305.78725    257.27023   -3075.6744    -2620.839    656.76005    12238.414 
   27400    304.01256    257.21547    -3073.849   -2621.6533    604.05631    12244.933 
   27450    304.94255    257.18718    -3072.906   -2619.3271     492.7032     12251.63 
   27500    300.84648    257.14234   -3071.4115   -2623.9251    542.03346    12258.454 
   27550    292.18616    256.86558   -3062.1861   -2627.5813    722.15942    12265.431 
   27600     288.8609      256.785   -3059.5002   -2629.8415    712.44169    12272.661 
   27650    291.81924    256.90873   -3063.6245   -2629.5654    545.73471    12280.128 
   27700    284.99705    256.64298    -3054.766   -2630.8545    700.29341    12287.765 
   27750    282.47582    256.63516   -3054.5053   -2634.3439    638.26337    12295.637 
   27800    291.19598    256.99972   -3066.6575   -2633.5255    215.68052    12303.685 
   27850    284.61952    256.73197   -3057.7323   -2634.3824    311.03471     12311.73 
   27900    275.72193    256.45736   -3048.5788   -2638.4633    410.43412    12319.808 
   27950    291.98674    257.04597   -3068.1988   -2633.8907   -311.18205    12327.908 
   28000    294.30158    257.09273   -3069.7577   -2632.0064   -497.75752     12335.72 
   28050    297.08355    252.28542   -3076.1806   -2634.2913   -717.75057    12343.078 
   28100    286.36916    251.84294   -3061.4313   -2635.4789   -388.80179    12349.911 
   28150    281.43473    251.62135    -3054.045   -2635.4322   -153.65085    12356.347 
   28200    278.62644    251.57644   -3052.5481   -2638.1123   -144.13082    12362.528 
   28250    293.20547    252.12514   -3070.8381   -2634.7171   -727.00342    12368.435 
   28300    283.32886    251.74527   -3058.1755   -2636.7453   -394.59904    12373.824 
   28350    283.43439    251.63195   -3054.3983   -2632.8111   -315.39512    12378.811 
   28400    287.85772    251.87565   -3062.5217   -2634.3552   -599.10969    12383.451 
   28450    289.23221    251.84603   -3061.5345   -2631.3235   -736.87381    12387.604 
   28500    296.10562    252.17181   -3072.3936   -2631.9589   -1056.8235    12391.162 
   28550    282.75801    251.79461   -3059.8202   -2639.2391   -756.13017    12394.013 
   28600    287.97521    251.96937   -3065.6458   -2637.3045   -928.67179     12396.26 
   28650     292.9084    252.19542   -3073.1806   -2637.5016    -1040.558    12397.834 
   28700    272.94294    251.42064   -3047.3547   -2641.3727   -363.82037    12398.725 
   28750    286.96332     251.9385   -3064.6166   -2637.7804   -845.31373    12399.197 
   28800    289.18431     252.0203   -3067.3432   -2637.2035    -988.6167    12399.082 
   28850    287.86099    251.95549   -3065.1831   -2637.0117   -918.89746    12398.286 
   28900    288.77043    251.94061    -3064.687   -2635.1628   -891.74002    12396.828 
   28950    289.91589    251.94827   -3064.9425   -2633.7145   -861.31905    12394.731 
   29000    279.78146    251.55454   -3051.8179   -2635.6642   -539.98642    12392.056 
   29050    289.86187    256.96472   -3065.4907   -2634.3431    -925.5399    12388.906 
   29100    289.63578    256.94694   -3064.8979   -2634.0866   -856.52752    12385.151 
   29150    285.87837    256.79518   -3059.8392   -2634.6168   -575.86815    12380.818 
   29200    282.00935     256.6827   -3056.0901   -2636.6226   -420.14911    12376.056 
   29250    287.41593    256.88082    -3062.694   -2635.1846   -546.75134    12370.929 
   29300    282.57811    256.64419   -3054.8065   -2634.4929   -273.72203    12365.424 
   29350    288.37285    256.83269   -3061.0897   -2632.1569   -359.82277    12359.635 
   29400    283.25921    256.64391   -3054.7971   -2633.4705    -115.3871    12353.561 
   29450    281.03957    256.45524   -3048.5079   -2630.4829    75.073356    12347.313 
   29500     285.9188    256.60375   -3053.4584   -2628.1758   -38.205295    12340.994 
   29550    304.28709    257.21217   -3073.7389   -2621.1349    -556.4439    12334.527 
   29600    297.71162    256.91721   -3063.9071   -2621.0837   -269.28318    12327.703 
   29650    297.09265    256.85033   -3061.6776   -2619.7748   -146.17616    12320.625 
   29700    291.37222    256.65845   -3055.2815   -2621.8874    216.93423    12313.392 
   29750    287.52175     256.4703   -3049.0101   -2621.3433    592.90282    12306.177 
   29800    303.95407      257.106   -3070.1999   -2618.0912    231.47981    12299.159 
   29850    301.79549    256.93648   -3064.5492   -2615.6513    520.48072    12292.214 
   29900    294.69796    256.60044   -3053.3479    -2615.007    903.08961    12285.469 
   29950    310.14473    257.10253   -3070.0843   -2608.7675    492.58842    12279.083 
   30000    314.00091    257.23566   -3074.5219   -2607.4694    547.65256    12272.884 
   30050    303.78901    251.79261   -3059.7538   -2607.8907    1071.7807    12266.912 
   30100     308.5412    251.95318   -3065.1059   -2606.1743    895.08882    12261.369 
   30150    312.03583     252.0619     -3068.73   -2604.6003    760.04998    12256.204 
   30200    308.71624     251.8363     -3061.21    -2602.018    1092.2595    12251.352 
   30250    301.87385    251.61626   -3053.8753   -2604.8608    1389.0625    12246.991 
   30300    311.58226    251.86792   -3062.2642   -2598.8092    1170.6115    12243.232 
   30350    300.16523    251.43095   -3047.6982   -2601.2252    1565.7424    12240.008 
   30400    318.75954    252.07611   -3069.2037    -2595.073    1016.2826    12237.447 
   30450    315.92993    251.91818   -3063.9393   -2594.0175    1100.8287    12235.365 
   30500    321.29921    252.19048   -3073.0159   -2595.1077    884.46999    12233.713 
   30550    312.37078    251.75384   -3058.4614   -2593.8335    1230.4973     12232.43 
   30600    309.90008    251.72858   -3057.6192   -2596.6663     1293.133    12231.658 
   30650    320.92974    252.11665    -3070.555   -2593.1964    898.37604     12231.44 
   30700    322.39994     252.1626   -3072.0868   -2592.5413    887.93325    12231.589 
   30750    315.79779     251.8905   -3063.0168   -2593.2915    1161.2364    12232.098 
   30800    323.97826    252.17643   -3072.5477   -2590.6546    865.37594    12233.055 
   30850    303.41983    251.52761   -3050.9204   -2599.6064    1462.4649    12234.378 
   30900    300.58557    251.43776   -3047.9253   -2600.8271    1501.1926     12236.31 
   30950    321.05325    252.14634   -3071.5448   -2594.0024    806.47065    12238.869 
   31000    313.84213     251.9002   -3063.3401   -2596.5238    977.48539    12241.761 
   31050    315.20812    246.99293   -3066.4308   -2597.5826    876.90954    12244.999 
   31100    312.85776    246.93592   -3064.5308   -2599.1786     823.3737    12248.548 
   31150    311.95468     246.8913   -3063.0432   -2599.0343    869.69559    12252.362 
   31200     310.7423    246.81782   -3060.5941   -2598.3885    901.92103    12256.488 
   31250    314.72211    247.02032   -3067.3439   -2599.2186    656.76926    12260.908 
   31300    311.14113    246.99888   -3066.6293   -2603.8305    667.13434    12265.516 
   31350    306.19715    246.85445   -3061.8151     -2606.37    735.10993     12270.32 
   31400    323.47842    247.44193   -3081.3977   -2600.2481    247.25819    12275.312 
   31450    307.88842    246.89533   -3063.1777    -2605.217     654.4581    12280.343 
   31500    315.88178    247.16698   -3072.2327   -2602.3825    331.31637    12285.477 
   31550    310.62401    247.00494   -3066.8312   -2604.8015    392.85621    12290.643 
   31600    318.93899    247.34066   -3078.0222   -2603.6246    73.285771    12295.812 
   31650    302.21267    246.75449   -3058.4831   -2608.9646    532.34331    12300.886 
   31700    311.18757     247.1521   -3071.7367   -2608.8688    166.91498    12306.029 
   31750    303.56786    246.85051   -3061.6837   -2610.1495    395.81587    12311.134 
   31800    299.43867    246.79564   -3059.8548   -2614.4624    496.22664    12316.248 
   31850    303.17042    246.98895   -3066.2983   -2615.3553    236.42369    12321.434 
   31900    294.12061    246.74728   -3058.2426   -2620.7605    416.62517    12326.597 
   31950    286.87013     246.4941   -3049.8033   -2623.1057     570.6257    12331.811 
   32000    300.33439    246.95083   -3065.0277   -2618.3031    54.589805    12337.125 
   32050    306.92363    247.22933    -3074.311   -2617.7853   -409.40913    12342.304 
   32100    312.37505    247.41959   -3080.6531   -2616.0189   -696.66928    12347.067 
   32150     287.6932    246.60032   -3053.3441   -2625.4223    89.923112    12351.325 
   32200    293.97709    246.92686   -3064.2285   -2626.9599   -183.29442    12355.396 
   32250     296.9849    247.00422   -3066.8074   -2625.0649   -517.43665     12359.21 
   32300    294.95775     246.9655   -3065.5166   -2626.7893   -581.08927    12362.585 
   32350    296.27292    246.97232    -3065.744   -2625.0604   -599.24035    12365.473 
   32400    303.22602    247.26032    -3075.344   -2624.3182   -869.12195    12367.828 
   32450    296.17585    247.03693   -3067.8978   -2627.3587    -645.9358    12369.548 
   32500     278.5958     246.4049     -3046.83   -2632.4399   -99.320952    12370.777 
   32550     288.0463    246.77233   -3059.0776   -2630.6306   -384.33784    12371.729 
   32600     291.4728    246.86883   -3062.2943   -2628.7506   -485.18564    12372.328 
   32650     298.0999    247.08545   -3069.5148   -2626.1138   -681.79907    12372.487 
   32700    290.89728    246.87173   -3062.3909   -2629.7033   -477.06679    12372.126 
   32750    296.11477     247.1085   -3070.2834   -2629.8351   -687.28997     12371.32 
   32800    295.06428    247.04706   -3068.2352   -2629.3495   -576.07746    12369.995 
   32850     281.8231    246.60348   -3053.4493   -2634.2588   -99.908764    12368.208 
   32900    275.72061    246.36316   -3045.4386   -2635.3251    83.853969    12366.212 
   32950    289.78772    246.85114   -3061.7046   -2630.6673   -320.63182    12364.083 
   33000    294.27425     247.0176   -3067.2533   -2629.5427   -530.73472    12361.647 
   33050    300.50896    252.22521   -3074.1735   -2627.1892   -823.66773    12358.765 
   33100    301.12345    252.28189   -3076.0629   -2628.1646   -776.21047    12355.304 
   33150    282.43675    251.57137   -3052.3791   -2632.2758   -2.5836541    12351.331 
   33200    287.75745    251.75729   -3058.5763   -2630.5588   -70.444596     12347.17 
   33250    297.00863    252.23532   -3074.5106   -2632.7328   -407.01405    12342.827 
   33300    287.10411    251.75794   -3058.5979   -2631.5523    7.4608725    12338.192 
   33350    284.38465    251.62684   -3054.2281   -2631.2275    182.07126    12333.428 
   33400    292.14315    251.89383   -3063.1275   -2628.5867    -37.03085     12328.62 
   33450    289.86282    251.90584    -3063.528    -2632.379    2.7085105    12323.706 
   33500    294.23808    252.09926   -3069.9755   -2632.3186   -52.430061    12318.659 
   33550    283.27239    251.59469   -3053.1565   -2631.8102    401.70837      12313.5 
   33600    291.03783    251.82488   -3060.8294   -2627.9327    241.69841     12308.41 
   33650    292.58295    251.84865   -3061.6217   -2626.4267    270.88066    12303.356 
   33700    295.69374    251.93851   -3064.6171   -2624.7951    173.86147    12298.325 
   33750     300.4835     252.1941   -3073.1365   -2626.1901    4.7048949    12293.261 
   33800    299.80909    252.12729   -3070.9098   -2624.9665    149.59722    12288.083 
   33850    296.07529    251.99736   -3066.5788   -2626.1892    323.23849     12282.87 
   33900    296.37632    252.03077   -3067.6924   -2626.8551    394.08289    12277.706 
   33950     288.4451     251.7434   -3058.1132    -2629.073    768.27229     12272.65 
   34000    298.93414    252.07039   -3069.0132   -2624.3713    547.19454    12267.853 
   34050    300.30338    247.13031   -3071.0104   -2624.3319    539.00007    12263.248 
   34100    309.18361    247.45989   -3081.9965   -2622.1093    205.51263    12258.777 
   34150    311.40467     247.5154   -3083.8468   -2620.6559    99.560338    12254.289 
   34200    304.62905    247.20682   -3073.5606    -2620.448    445.48602    12249.743 
   34250    307.45402    247.40643   -3080.2145   -2622.8999    425.65169    12245.289 
   34300     307.6923    247.41438   -3080.4792   -2622.8102    460.67413    12240.922 
   34350    297.61759    247.00112    -3066.704   -2624.0204     786.9572    12236.676 
   34400    299.83965     247.0874   -3069.5801   -2623.5914    772.11654    12232.693 
   34450    306.72397    247.36143   -3078.7144   -2622.4858    687.99189    12228.983 
   34500    315.15086    247.72571    -3090.857    -2622.094    368.96049    12225.494 
   34550    317.19309    247.74392   -3091.4641   -2619.6634    285.51692    12222.079 
   34600    307.24013    247.39807   -3079.9355   -2622.9391    748.47518    12218.697 
   34650     300.0197    247.12568   -3070.8559   -2624.5993    1073.3801    12215.579 
   34700    310.13804    247.44457   -3081.4858    -2620.179    697.27775    12212.859 
   34750    306.10939    247.32756   -3077.5852   -2622.2707    854.52013    12210.391 
   34800     310.9744     247.5311     -3084.37   -2621.8192    741.20409    12208.212 
   34850    321.72486    247.94984   -3098.3279   -2619.7865    294.50938    12206.282 
   34900    324.84321    248.02514   -3100.8379   -2617.6583    273.28279    12204.366 
   34950    303.01631    247.26281    -3075.427   -2624.7132    1080.1799    12202.473 
   35000    302.07802    247.27356   -3075.7854   -2626.4672    1146.1251    12200.977 
   35050    293.96604     241.9744   -3065.8132    -2628.561    1417.3333    12199.974 
   35100    305.34327    242.44349   -3081.4498   -2627.2748    1058.6606    12199.537 
   35150      300.528     242.2505   -3075.0167    -2628.004    1257.5762    12199.547 
   35200    310.57761     242.6166     -3087.22   -2625.2594    857.25431    12200.049 
   35250    328.92635     243.2665   -3108.8833   -2619.6303    173.83751    12200.815 
   35300    293.47193    242.05528   -3068.5093    -2631.992    1201.4775    12201.585 
   35350    306.78016    242.57453   -3085.8177   -2629.5055    689.02213    12202.726 
   35400    317.09029    242.89628   -3096.5428    -2624.895    314.20406    12204.081 
   35450    317.98155    242.85648    -3095.216   -2622.2425    293.61857    12205.444 
   35500    317.38283    242.83646   -3094.5488   -2622.4658    301.11732    12206.781 
   35550    305.79284    242.44459   -3081.4862   -2626.6425    694.26915    12208.121 
   35600    303.53751    242.38917    -3079.639     -2628.15     805.3023    12209.646 
   35650    296.94156    242.23186   -3074.3953   -2632.7172    956.36233    12211.435 
   35700    290.03263    241.98254   -3066.0846   -2634.6831    1114.2073     12213.56 
   35750    308.51665    242.66195   -3088.7317   -2629.8366    429.05904    12216.063 
   35800    301.88767    242.50284   -3083.4281   -2634.3931    507.19053    12218.671 
   35850    297.35231    242.29643   -3076.5475   -2634.2585    718.45933    12221.369 
   35900    306.40112    242.66953   -3088.9842   -2633.2357    359.41564    12224.252 
   35950    308.16507    242.70455   -3090.1518   -2631.7796    128.57697    12227.166 
   36000    306.73105    242.71138   -3090.3794   -2634.1403     49.69758    12229.966 
   36050    312.72408    237.91499   -3097.1663   -2632.0129   -154.46965    12232.587 
   36100     313.7163    238.04923   -3101.6411   -2635.0119   -146.83392    12234.927 
   36150    297.81063     237.5155   -3083.8499   -2640.8792    389.72715     12237.02 
   36200     305.3396     237.7541   -3091.8034   -2637.6339     136.6788     12239.09 
   36250    314.34334    237.93935   -3097.9783   -2630.4164   -174.87589    12241.024 
   36300    288.98036    237.20179   -3073.3929   -2643.5565    555.29587    12242.727 
   36350     295.4054    237.51754   -3083.9179   -2644.5247    296.88505    12244.497 
   36400    307.57017    237.89707   -3096.5689   -2639.0816   -140.90218    12246.226 
   36450    296.72599    237.51433    -3083.811   -2642.4536    228.29104    12247.719 
   36500    300.78827    237.62205   -3087.4016   -2640.0019    101.65341    12249.112 
   36550    308.69647    237.92483   -3097.4943   -2638.3316   -216.86618    12250.356 
   36600    308.52973     237.8718   -3095.7268   -2636.8122    -183.8074    12251.302 
   36650     298.0975    237.60606   -3086.8686   -2643.4712    67.173631    12251.965 
   36700    292.26583    237.48226   -3082.7419   -2648.0186    239.00475    12252.455 
   36750    296.04361    237.56995   -3085.6652   -2645.3227    208.01276    12252.879 
   36800    294.68737      237.487   -3082.9001    -2644.575    232.32434    12253.238 
   36850    302.93318    237.80126   -3093.3752   -2642.7851   -46.261757    12253.521 
   36900    313.38836    238.23819   -3107.9396   -2641.7981   -469.63019    12253.584 
   36950    304.11721     237.8758     -3095.86   -2643.5087   -235.92767    12253.238 
   37000    302.65532    237.78624   -3092.8745   -2642.6977   -129.33145    12252.573 
   37050     303.2087     232.8462   -3094.8734   -2643.8735   -87.501683    12251.652 
   37100    307.20857    233.03384   -3101.1282   -2644.1787   -238.62975     12250.46 
   37150    319.79541    233.36362   -3112.1208   -2636.4494   -641.49197    12248.911 
   37200    309.92959    233.12285   -3104.0949   -2643.0981    -371.5145    12246.829 
   37250     294.4951    232.56313   -3085.4376   -2647.3985    151.09376     12244.36 
   37300    305.85599     233.0289   -3100.9632   -2646.0256   -191.66625    12241.734 
   37350     305.4159    233.00018    -3100.006    -2645.723    -187.1983    12238.834 
   37400    305.93496    232.96959   -3098.9865   -2643.9314   -146.36589    12235.639 
   37450    302.00958     232.9003   -3096.6765   -2647.4601    26.310674    12232.169 
   37500    293.52139    232.54944   -3084.9813   -2648.3904    309.25828    12228.536 
   37550    302.90219    232.93457   -3097.8191    -2647.275   -46.836272    12224.859 
   37600    299.40172     232.7917   -3093.0567   -2647.7193    132.25037    12220.976 
   37650    301.95443    232.90049   -3096.6829   -2647.5485    142.30723    12216.954 
   37700    309.29946    233.33857   -3111.2857   -2651.2261   -124.78817    12212.806 
   37750    297.74584    232.97531    -3099.177   -2656.3026    213.30449    12208.444 
   37800    301.04729    233.07168   -3102.3894   -2654.6043    206.41796    12203.991 
   37850     302.1953    233.00994   -3100.3314   -2650.8388     201.1226     12199.47 
   37900    313.00197    233.40725    -3113.575   -2648.0083   -111.55984    12194.846 
   37950    308.07803    233.31166   -3110.3888   -2652.1461    187.21275    12190.008 
   38000    298.75506    232.99629   -3099.8762   -2655.5007     547.0428    12185.095 
   38050    292.88429    232.88245   -3096.0817   -2660.4385    609.24393    12180.279 
   38100    321.37244    233.81961   -3127.3203   -2649.3031   -252.67374    12175.544 
   38150    306.18657     233.3278   -3110.9265   -2655.4972    215.01909    12170.555 
   38200    292.54512    232.84493    -3094.831   -2659.6923    728.97045    12165.482 
   38250    297.87849    233.06942   -3102.3139   -2659.2422    561.81257    12160.602 
   38300    317.54948    233.76997   -3125.6657   -2653.3349   -48.062795    12155.813 
   38350     313.3063    233.67515    -3122.505   -2656.4856    137.07392    12150.861 
   38400    315.86037    233.73188    -3124.396   -2654.5777    201.70059    12145.775 
   38450    302.66556    233.43216   -3114.4053   -2664.2132    594.85467    12140.634 
   38500    302.71668    233.47379   -3115.7929   -2665.5248    607.51326    12135.605 
   38550    298.39167    233.35515   -3111.8385   -2668.0035    782.54358    12130.747 
   38600    294.19745    233.18104   -3106.0348   -2668.4384     1024.049    12126.134 
   38650    301.32302     233.5325   -3117.7499   -2669.5547    817.34206    12121.865 
   38700     309.7066    233.75257   -3125.0857   -2664.4206    575.95822    12117.843 
   38750    289.64832    233.12995   -3104.3316   -2673.5017    1069.0176    12113.985 
   38800    308.96058    233.70409   -3123.4697   -2663.9143    587.44335    12110.445 
   38850    307.53359    233.72924   -3124.3081   -2666.8752    725.80088    12107.078 
   38900    311.66233    233.95731   -3131.9102   -2668.3361    616.59855    12103.892 
   38950    303.88053    233.63786   -3121.2619   -2669.2627    923.82288    12100.869 
   39000    307.71643     233.8296   -3127.6532   -2669.9483    855.25586    12098.112 
   39050    302.85905    228.71904   -3123.9681   -2673.4882    917.06084    12095.622 
   39100    312.50241    229.06288   -3135.4294   -2670.6058    538.95479    12093.398 
   39150    306.07858    228.88196   -3129.3987   -2674.1301    742.97732    12091.292 
   39200    307.09925    228.90298   -3130.0995   -2673.3126    805.57608    12089.355 
   39250    311.71312    229.08718   -3136.2392   -2672.5896    676.65937    12087.636 
   39300    323.62041    229.58599   -3152.8663   -2671.5055    231.18037     12086.04 
   39350    314.64447    229.24984   -3141.6612   -2673.6514    407.51018    12084.383 
   39400    301.09125    228.72978    -3124.326   -2676.4756    787.57314    12082.743 
   39450    302.40252    228.88059   -3129.3531   -2679.5523    626.22003    12081.278 
   39500    294.99389    228.70984   -3123.6612   -2684.8801    813.37617    12079.944 
   39550    297.50757    228.88569   -3129.5231   -2687.0032    697.31311    12078.814 
   39600    297.99087    228.93953   -3131.3178    -2688.079     655.3888     12077.86 
   39650    295.69959    228.87307   -3129.1023   -2689.2716    720.62054    12077.052 
   39700    312.89795    229.45746   -3148.5822   -2683.1702    159.24326    12076.382 
   39750     313.4458    229.42072   -3147.3572   -2681.1303    206.40625    12075.613 
   39800    284.47078    228.47821   -3115.9403   -2692.8116     1116.459    12074.802 
   39850    304.23811    229.29838   -3143.2794   -2690.7483    524.71985    12074.291 
   39900    293.02846    228.88806   -3129.6019   -2693.7443    885.77726    12073.931 
   39950     298.8903    229.06111   -3135.3702   -2690.7935    683.22401     12073.79 
   40000    292.92408    229.00238   -3133.4126   -2697.7103    721.10456    12073.829 
   40050    308.14782    229.52214   -3150.7379   -2692.3914     252.3676     12074.01 
   40100    303.27816    229.28157   -3142.7191   -2691.6158    472.38526    12074.145 
   40150    291.27612    228.88345   -3129.4484   -2696.1973     821.8325    12074.323 
   40200    299.07005    229.07873   -3135.9577   -2691.1137    625.23596    12074.702 
   40250    288.35257    228.81554   -3127.1847   -2698.2821    920.85578    12075.247 
   40300    294.92997    229.13514   -3137.8381   -2699.1521    634.27836    12076.042 
   40350    298.06072    229.23731   -3141.2437   -2697.9009    537.35194    12076.992 
   40400     289.7843    228.88286   -3129.4287   -2698.3965     781.9378     12078.04 
   40450    299.92768    229.18208   -3139.4026   -2693.2829    432.87945    12079.249 
   40500    306.02858    229.37094   -3145.6979   -2690.5036    260.07408    12080.497 
   40550    300.64952    229.25974   -3141.9913   -2694.7979    357.87117    12081.692 
   40600    302.64688    229.31349   -3143.7829   -2693.6186     298.3177    12082.851 
   40650    293.46588    229.04141   -3134.7137   -2698.2054    576.93282    12083.979 
   40700    302.64444    229.39862   -3146.6205   -2696.4599    256.40364    12085.158 
   40750    289.66034    228.89753   -3129.9176   -2699.0698    647.72155    12086.305 
   40800    290.05238    228.99315   -3133.1049    -2701.674    631.59954    12087.558 
   40850    289.34937    228.93149   -3131.0497   -2700.6645    646.35671    12088.943 
   40900    292.00427    229.06163   -3135.3876   -2701.0533    464.86406    12090.465 
   40950    312.50475    229.69668   -3156.5561    -2691.729   -152.77274    12092.004 
   41000    304.79916    229.43781   -3147.9272   -2694.5615    107.89135    12093.284 
   41050    297.93113    224.13563   -3137.8545   -2694.7045    402.75649    12094.388 
   41100    289.16579    223.90436   -3130.1454   -2700.0332    634.14421    12095.487 
   41150    308.36756    224.52536   -3150.8455   -2692.1721    20.983957    12096.655 
   41200    305.10351    224.36577   -3145.5257   -2691.7073    25.352105    12097.657 
   41250    303.51807    224.28318   -3142.7725   -2691.3124   -55.157511    12098.428 
   41300    316.95022    224.77027   -3159.0088   -2687.5694   -469.84055    12098.897 
   41350    297.03746    224.11866   -3137.2886   -2695.4679    151.65422    12098.927 
   41400    283.85057    223.66867   -3122.2889   -2700.0827    560.79985    12098.799 
   41450    302.07264    224.17584   -3139.1945   -2689.8844    50.247996    12098.704 
   41500    300.74014    224.20151   -3140.0504   -2692.7222    119.66847    12098.437 
   41550    300.00948    224.20426    -3140.142   -2693.9006    218.31866    12097.992 
   41600    293.14684    223.95086   -3131.6954   -2695.6617    477.52728    12097.463 
   41650    298.68811    224.10987   -3136.9956   -2692.7197    311.20443     12096.96 
   41700    318.50641    224.77773   -3159.2577   -2685.5036   -354.62288    12096.361 
   41750    293.58574    224.00971    -3133.657   -2696.9705    342.37604    12095.413 
   41800    297.75125    224.18408   -3139.4694    -2696.587    287.79042    12094.373 
   41850    300.84521    224.27099   -3142.3662   -2694.8818    321.27296    12093.276 
   41900     288.7891    223.82517   -3127.5057   -2697.9538    755.84687    12092.141 
   41950    309.13844    224.42684   -3147.5613   -2687.7413    218.67779    12091.127 
   42000    293.58494    223.90711   -3130.2371   -2693.5518    624.57946    12090.071 
   42050    300.76383    229.20935   -3140.3117   -2692.9483    432.21775    12089.089 
   42100    279.38653     228.4515   -3115.0502   -2699.4839    1013.9207    12088.203 
   42150    299.23407    229.19337   -3139.7792   -2694.6912    322.58195    12087.559 
   42200    311.40128    229.58736   -3152.9119   -2689.7261   -85.674571    12086.902 
   42250    299.56516    229.17542   -3139.1808   -2693.6003    293.37583    12086.025 
   42300    305.99316    229.30381   -3143.4604   -2688.3187    148.60056    12085.071 
   42350    299.46978    229.08991   -3136.3304   -2690.8918    355.69218    12084.016 
   42400     287.9169     228.6771   -3122.5701   -2694.3155    764.26299     12082.95 
   42450    306.73366    229.39952   -3146.6506   -2690.4075    266.55226    12082.045 
   42500    298.82524    229.12048   -3137.3494   -2692.8695    643.75445    12081.133 
   42550    293.41829    228.91879   -3130.6262   -2694.1887    883.53541    12080.344 
   42600     305.8153    229.41347   -3147.1158   -2692.2387    491.74761    12079.788 
   42650    285.10066    228.69325   -3123.1083   -2699.0427    1021.2329    12079.342 
   42700    304.06486     229.2913   -3143.0432   -2690.7698    483.52782    12079.159 
   42750    304.98147    229.28596   -3142.8654   -2689.2286    503.81146    12079.065 
   42800    300.91528    229.17033   -3139.0111   -2691.4224     573.7874    12079.024 
   42850     298.7818    229.08873    -3136.291   -2691.8757    595.44675     12079.08 
   42900    300.34464    229.04561   -3134.8535   -2688.1136    630.24485    12079.243 
   42950    298.65314    229.01731   -3133.9104   -2689.6865    660.03452    12079.527 
   43000    298.26091    229.00895   -3133.6317   -2689.9912     688.6263    12079.949 
   43050    293.74732      228.804   -3126.8001   -2689.8732    806.60007    12080.539 
   43100    299.74999    229.02252   -3134.0839   -2688.2285    586.79805    12081.323 
   43150      297.344    228.83913   -3127.9711   -2685.6944    727.62962    12082.233 
   43200    300.83117    228.93775   -3131.2584   -2683.7949    709.28375    12083.313 
   43250    297.34497     228.7387   -3124.6235   -2682.3454    957.10901    12084.574 
   43300    301.51125    228.96482   -3132.1605   -2683.6854    782.76745    12086.105 
   43350    310.56713    229.26896   -3142.2986   -2680.3535    479.59687    12087.826 
   43400    296.45334     228.8708   -3129.0267   -2688.0748    829.25355    12089.636 
   43450    315.83413    229.41507   -3147.1691   -2677.3898    254.20162    12091.624 
   43500    311.38221    229.17043   -3139.0144    -2675.857    487.41465    12093.563 
   43550    305.74486    229.03744   -3134.5813    -2679.809    661.82565    12095.555 
   43600     308.9032    229.19089   -3139.6964   -2680.2263    475.09221    12097.677 
   43650    294.24133    228.71484    -3123.828   -2686.1663    884.55914    12099.863 
   43700    292.53788    228.64354   -3121.4515   -2686.3236    966.08255    12102.284 
   43750    302.49645    228.84787   -3128.2623   -2678.3218    660.78453    12104.993 
   43800    315.70934    229.21981   -3140.6605   -2671.0667    184.65611    12107.846 
   43850    315.20533     229.2188   -3140.6266   -2671.7825     136.1444    12110.589 
   43900    301.53414    228.74425   -3124.8084   -2676.2992    431.55112    12113.201 
   43950    306.47597    228.86742   -3128.9139   -2673.0541    270.25629    12115.791 
   44000    307.30341    228.89742   -3129.9141   -2672.8236    310.97458    12118.317 
   44050    307.04492    223.90292   -3130.0974   -2673.3914    403.73247     12120.78 
   44100     306.8725    223.84066    -3128.022   -2671.5725     494.8036    12123.235 
[...]
   89400    309.68271    247.02319   -3067.4397   -2606.8101    151.82603    12295.861 
   89450    311.43667    247.07709   -3069.2365   -2605.9981    44.579313    12301.128 
   89500    307.56933     246.9742   -3065.8067   -2608.3206    161.16153    12306.282 
   89550    311.04773    247.12729   -3070.9097   -2608.2498    8.0405287    12311.375 
   89600    307.03849     246.9876   -3066.2534   -2609.5569    122.64938    12316.338 
   89650    289.30343     246.3193   -3043.9765   -2613.6596     695.5592    12321.258 
   89700    304.59993    246.94097   -3064.6989   -2611.6296    83.652447    12326.355 
   89750     305.8929    246.98591   -3066.1971   -2611.2046    -200.9391     12331.39 
   89800     312.4069    247.18085   -3072.6951   -2608.0135   -540.17004    12336.164 
   89850    303.93943    246.86337   -3062.1125   -2610.0256   -308.56785    12340.527 
   89900    305.19237    246.87766   -3062.5887   -2608.6381   -329.11989    12344.551 
   89950    306.27843    246.95886   -3065.2952   -2609.7292   -368.72625    12348.254 
   90000    303.66736    246.88301    -3062.767   -2611.0848   -350.82713    12351.602 
   90050    304.36878    251.92023   -3064.0077   -2611.2822   -348.81886    12354.595 
   90100    283.18561    251.13601   -3037.8671     -2616.65    420.40727    12357.312 
   90150    289.79834    251.42571   -3047.5235   -2616.4705    122.14751    12360.062 
   90200    291.45038    251.56473   -3052.1575   -2618.6472   -69.583932    12362.768 
   90250    294.33295    251.68675   -3056.2251   -2618.4272    -244.5705    12365.297 
   90300    297.95955    251.82481    -3060.827   -2617.6348   -445.85262    12367.558 
   90350    300.75286    251.87766   -3062.5887   -2615.2417   -549.26872    12369.436 
   90400    288.62446    251.47916   -3049.3054   -2619.9984   -187.92979    12370.889 
   90450    285.80901    251.37721   -3045.9069   -2620.7876   -62.052791     12372.08 
   90500    271.21118    250.91197   -3030.3989   -2626.9928    412.84473    12373.124 
   90550    283.35525    251.38288    -3046.096   -2624.6266   -55.669906    12374.211 
   90600     295.1146    251.82272   -3060.7573   -2621.7967   -580.64218    12375.147 
   90650    288.34466    251.60447   -3053.4823   -2624.5915   -348.08272    12375.646 
   90700    287.00283    251.54813   -3051.6044   -2624.7094   -251.00208    12375.797 
   90750    297.19613    251.88774   -3062.9248   -2620.8681   -548.89268    12375.639 
   90800    280.80892    251.35769   -3045.2564   -2627.5744   -11.270819    12375.077 
   90850    283.35897    251.44286   -3048.0954   -2626.6204   -69.994261    12374.336 
   90900    294.45863    251.93695   -3064.5649     -2626.58   -505.87723    12373.387 
   90950    294.67085    251.98756   -3066.2521   -2627.9516   -455.40808    12372.021 
   91000    283.11888    251.45412   -3048.4708   -2627.3529    64.274385    12370.286 
   91050    294.59211    251.85158   -3061.7193   -2623.5359   -256.52011    12368.387 
   91100    287.91809    251.66697   -3055.5657   -2627.3093   -75.574792    12366.233 
   91150      284.298    251.57529   -3052.5097    -2629.638    82.795046    12363.864 
   91200    288.23007    251.77116   -3059.0386   -2630.3182   -23.342488    12361.383 
   91250    289.45316    251.73714   -3057.9047   -2627.3651   -40.390379    12358.747 
   91300     300.2259    252.09452   -3069.8173   -2623.2541   -342.27839    12355.907 
   91350    298.05507    252.05695   -3068.5651   -2625.2307   -333.58603    12352.751 
   91400    299.28121    252.08356    -3069.452   -2624.2938   -384.31072    12349.222 
   91450    292.08084    251.84423   -3061.4744   -2627.0263   -52.673572    12345.359 
   91500    299.69157    251.98449   -3066.1497   -2620.3812   -108.88877     12341.29 
   91550    302.35202    252.17519   -3072.5064   -2622.7807   -175.60081    12336.994 
   91600    291.10158    251.74522   -3058.1739   -2625.1824    240.06453     12332.46 
   91650    287.52908    251.57698   -3052.5659   -2624.8882    331.76734    12327.878 
   91700    297.44352    251.89517   -3063.1725   -2620.7478    44.343192    12323.298 
   91750    280.07389    251.36352   -3045.4508   -2628.8621     636.3351    12318.633 
   91800    289.61986    251.64163   -3054.7211   -2623.9335    368.55349    12314.117 
   91850    309.21791    252.33309   -3077.7695   -2617.8313   -234.09361    12309.632 
   91900    310.64314    252.27209   -3075.7362   -2613.6781   -144.82549    12304.889 
   91950    293.57581    251.70342   -3056.7805   -2620.1088    488.31969    12299.938 
   92000    286.37375    251.49497   -3049.8323    -2623.873    821.44574    12295.084 
   92050    286.12191    251.37709   -3045.9029   -2620.3182    955.91797    12290.529 
   92100     297.9839    251.84654   -3061.5514   -2618.3229     627.1934     12286.32 
   92150    305.34481    252.09788   -3069.9294   -2615.7522    423.16838    12282.311 
   92200    300.45838    251.82202    -3060.734    -2613.825    645.33994    12278.397 
   92250    293.66471    251.60879   -3053.6264   -2616.8224    869.60715    12274.692 
   92300    313.32142    252.30899   -3076.9664   -2610.9245    329.32794    12271.257 
   92350    305.16422    251.90741   -3063.5802   -2609.6716    748.26087    12267.896 
   92400    306.09934    251.92292   -3064.0975   -2608.7979    828.96857    12264.761 
   92450    305.52438    251.77904   -3059.3013   -2604.8569    971.79597    12261.939 
   92500    294.37412    251.36686   -3045.5621   -2607.7029    1392.0134    12259.512 
   92550    309.68621    251.89295   -3063.0982   -2602.4634    930.04982    12257.632 
   92600     298.3287    251.44079   -3048.0265   -2604.2851    1397.4712    12256.179 
   92650    314.58649    251.97584   -3065.8613   -2597.9377    961.08144    12255.284 
   92700     326.1123    252.36218   -3078.7394   -2593.6721    473.87892    12254.765 
   92750    315.49945    251.97867   -3065.9558   -2596.6743    714.33704     12254.39 
   92800    311.67171     251.8934   -3063.1133   -2599.5252    911.30584    12254.252 
   92850    293.11594    251.14208   -3038.0694   -2602.0816    1693.6288    12254.507 
   92900    294.52842    251.20994   -3040.3312   -2602.2425    1645.0657    12255.515 
   92950    323.95668    252.20166   -3073.3886   -2591.5275    657.21921    12257.229 
   93000    322.89715    252.01506   -3067.1688   -2586.8837    733.84341    12259.213 
   93050    313.44892    251.71302   -3057.1006   -2590.8691    1035.3072    12261.459 
   93100    303.42246    251.36588   -3045.5293   -2594.2114    1328.6173     12264.13 
   93150    316.01953    251.76411   -3058.8035   -2588.7484    954.96428    12267.354 
   93200    311.60674    251.60286   -3053.4288   -2589.9374    1046.9775    12271.009 
   93250    325.89025    252.10119   -3070.0397   -2585.3027    567.72285    12275.052 
   93300    313.05919    251.59174   -3053.0579   -2587.4061    1027.4516    12279.339 
   93350    311.70927    251.48897   -3049.6325   -2585.9886    1095.6206    12284.018 
   93400    316.07112    251.64564   -3054.8547   -2584.7229     869.7952    12289.181 
   93450    317.50223    251.79723   -3059.9078   -2587.6473    778.95668    12294.715 
   93500    297.97819    251.16124   -3038.7082   -2595.4882    1307.8244    12300.603 
   93550    304.17107    251.31401   -3043.8005   -2591.3691    1096.7503    12307.052 
   93600    312.28075    251.53525   -3051.1751   -2586.6812    862.10884    12313.987 
   93650    300.14011    251.09995   -3036.6649   -2590.2293    1123.0706    12321.331 
   93700    303.22546    251.28171   -3042.7237   -2591.6988    849.46762    12329.148 
   93750    305.03148     251.2855   -3042.8501   -2589.1389    644.70737    12337.353 
   93800    321.68118    251.84892   -3061.6308   -2583.1544   -41.427195    12345.771 
   93850    323.82225    251.91199   -3063.7328   -2582.0718   -179.80828    12354.074 
   93900    309.56991    251.35101   -3045.0336   -2584.5718    147.20586    12362.201 
   93950    321.80232    251.96173   -3065.3911   -2586.7346   -389.73647    12370.235 
   94000    294.84025    250.94082   -3031.3605    -2592.808    429.98283     12378.03 
   94050     304.6377    251.31573   -3043.8575    -2590.732    139.02438    12385.861 
   94100    301.14304    251.12056   -3037.3521   -2589.4247    172.77963    12393.691 
   94150    303.68416     251.1407   -3038.0232   -2586.3161    32.226396    12401.498 
   94200    304.87512    251.27802   -3042.6007   -2589.1221   -209.73721    12409.207 
   94250    296.58189    251.05525   -3035.1751    -2594.032   -178.01163    12416.703 
   94300    303.39482    251.35842   -3045.2807   -2594.0039    -595.0926    12423.962 
   94350     302.7339    251.40467   -3046.8223   -2596.5286   -656.28712    12430.795 
   94400    289.84156    250.96099    -3032.033   -2600.9156   -227.30182    12437.176 
   94450    297.03332    251.14982   -3038.3274   -2596.5128   -504.59596    12443.269 
   94500    296.46824    251.23649   -3041.2165   -2600.2424   -579.48042    12448.959 
   94550    292.69534    251.07459   -3035.8196   -2600.4575   -477.50203     12454.21 
   94600    290.58108    251.04687   -3034.8957   -2602.6784   -472.58231    12459.064 
   94650    298.67889    251.34288   -3044.7627   -2600.5005   -796.07625    12463.492 
   94700    288.33121    251.03077   -3034.3591   -2605.4883   -513.15748    12467.372 
   94750    284.11834    250.94281   -3031.4271   -2608.8226   -488.92388    12470.809 
   94800    278.86664    250.85092   -3028.3639   -2613.5709   -536.48676    12473.837 
   94850    292.84974    251.42471   -3047.4904   -2611.8986   -1084.1683    12476.385 
   94900    284.45238    251.04523   -3034.8409   -2611.7396   -829.15343    12478.237 
   94950    281.01705    250.97503   -3032.5009   -2614.5093   -667.97431    12479.459 
   95000    284.40487    251.15482    -3038.494   -2615.4633   -701.00096    12480.151 
   95050    273.85546    250.81984    -3027.328   -2619.9887   -349.64401    12480.326 
   95100    276.23983    250.93617   -3031.2056   -2620.3198   -529.36866     12480.13 
   95150    287.46336     251.4164   -3047.2132   -2619.6333   -1123.1628    12479.474 
   95200    289.84619    251.45245    -3048.415   -2617.2908    -1283.597    12478.045 
   95250    278.83752    251.04538   -3034.8459   -2620.0962   -865.89019    12475.759 
   95300    276.76719    251.09153   -3036.3842    -2624.714   -793.12063     12472.79 
   95350    277.12023    251.15771   -3038.5903    -2626.395   -886.41131    12469.209 
   95400    281.11436    251.32247   -3044.0824   -2625.9461   -1005.3352    12464.968 
   95450    278.65131    251.33377   -3044.4589   -2629.9862   -835.34618    12460.011 
   95500    281.94346    251.33213   -3044.4044   -2625.0349   -831.56055    12454.424 
   95550    290.77344    251.74594   -3058.1982   -2625.6947   -1192.5733    12448.179 
   95600    287.60252    251.68294   -3056.0978   -2628.3109   -1093.4743    12441.113 
   95650    279.48778    251.36884   -3045.6281   -2629.9112   -731.19805    12433.287 
   95700    289.34517    251.77237   -3059.0791   -2628.7001   -898.38387    12424.833 
   95750    278.35201    251.34504   -3044.8347   -2630.8072   -380.51232    12415.758 
   95800    281.58951    251.43074   -3047.6913   -2628.8482   -318.31316    12406.258 
   95850    287.46745    251.57238   -3052.4127   -2624.8267   -410.19237    12396.397 
   95900    293.76648    251.82318   -3060.7725   -2623.8171   -629.78455    12386.134 
   95950    288.31859    251.64033   -3054.6777   -2625.8256   -454.92918    12375.368 
   96000    285.86522    251.72051   -3057.3504   -2632.1476   -356.11987    12364.161 
   96050    294.53471     246.8683   -3062.2766   -2624.1785    -378.4704    12352.572 
   96100     292.6067    246.80193   -3060.0644   -2624.8341   -59.589439    12340.602 
   96150    287.41186    246.67775    -3055.925   -2628.4217    284.86654     12328.42 
   96200    295.97273    247.01481   -3067.1604   -2626.9234    98.899173    12316.198 
   96250    303.18124    247.20112   -3073.3707   -2622.4116     31.81118    12303.858 
   96300    303.48941    247.20597   -3073.5323   -2622.1148    245.39374    12291.358 
   96350    296.24403    246.88984   -3062.9945    -2622.354    687.22208    12278.823 
   96400    300.31304    246.97677   -3065.8924   -2619.1995    658.73239    12266.475 
   96450    303.42237    247.15164   -3071.7212   -2620.4034    572.44653    12254.317 
   96500    313.31208    247.51417   -3083.8055   -2617.7776    482.20126    12242.273 
   96550    305.45168    247.18146   -3072.7155   -2618.3792    1038.5703    12230.365 
   96600    306.36565    247.17193   -3072.3978   -2616.7021     1240.934    12218.826 
   96650    302.13965    247.08873   -3069.6244   -2620.2146    1481.1491      12207.8 
   96700    301.74761    246.99769   -3066.5897    -2617.763    1642.8734    12197.402 
   96750    304.82955    247.03552   -3067.8507   -2614.4399    1726.2902    12187.728 
   96800    315.44305    247.32032   -3077.3439   -2608.1463    1568.6831    12178.813 
   96850    321.93375    247.49301   -3083.1002   -2604.2481    1469.7402     12170.58 
   96900    313.23968    247.22353   -3074.1176   -2608.1973    1727.4928    12163.001 
   96950    306.86682    246.99445   -3066.4816   -2610.0405    1975.8236    12156.185 
   97000    309.02342    247.03615   -3067.8715   -2608.2226    1993.1086    12150.265 
   97050    328.96739    252.66785   -3088.9283   -2599.6142    1466.6741    12145.226 
   97100     321.8531    252.37042   -3079.0141    -2600.282    1714.6311    12140.865 
   97150     319.4633    252.24004   -3074.6682   -2599.4907    1845.6004    12137.258 
   97200    312.69809    251.91819   -3063.9396   -2598.8249    2146.7043    12134.516 
   97250    313.86519    251.98008   -3066.0026   -2599.1519    2196.6279     12132.75 
   97300    312.67281    251.87028   -3062.3427   -2597.2656    2285.1596    12132.046 
   97350    310.57546     251.8315   -3061.0501   -2599.0927    2433.5963    12132.425 
   97400    304.95122    251.64955    -3054.985   -2601.3932    2641.0531    12133.966 
   97450    333.97421    252.64527   -3088.1757   -2591.4144    1739.8153    12136.733 
   97500    317.37245    251.96176   -3065.3921   -2593.3247    2253.8368    12140.399 
   97550    327.43516    252.28852    -3076.284    -2589.249    1833.9331    12145.044 
   97600    329.93839     252.4234   -3080.7799   -2590.0216    1611.6227    12150.536 
   97650    323.39123    252.04394   -3068.1314   -2587.1114    1887.2594    12156.779 
   97700    323.76217    252.06816   -3068.9387    -2587.367    1780.1764    12163.899 
   97750    330.40445      252.363   -3078.7666   -2587.3151    1413.3873    12171.826 
   97800    315.35548    251.76401   -3058.8002   -2589.7329    1777.2876     12180.43 
   97850     334.4478    252.45704   -3081.9015   -2584.4357    1100.2325    12189.796 
   97900    313.19067    251.65151   -3055.0504    -2589.203     1829.984    12199.719 
   97950    306.18669    251.41014   -3047.0046   -2591.5751    2004.0915     12210.46 
   98000    308.74043    251.62696    -3054.232    -2595.004    1699.9636    12222.146 
   98050    308.97124     246.6627   -3055.4233    -2595.852    1502.4692    12234.634 
   98100    312.78638    246.91464   -3063.8212   -2598.5752    1174.0716    12247.781 
   98150    298.07187    246.34694   -3044.8981   -2601.5387    1510.6081    12261.474 
   98200    317.40929    247.00605   -3066.8683   -2594.7461    847.81432    12275.783 
   98250    317.42719    246.98193   -3066.0642   -2593.9153    742.10703    12290.457 
   98300    304.70486    246.56116   -3052.0386   -2598.8133    994.23314    12305.432 
   98350    315.42887    246.99417   -3066.4724   -2597.2959    375.53319    12320.751 
   98400    307.02492    246.75338   -3058.4459   -2601.7696    316.01667    12336.159 
   98450    301.74801    246.58955   -3052.9851   -2604.1578    283.92779    12351.579 
   98500    300.44628    246.57177   -3052.3924   -2605.5013    152.73989    12366.975 
   98550    293.10166    246.24952   -3041.6505    -2605.684    209.57838    12382.304 
   98600    297.35751    246.47233   -3049.0776   -2606.7808   -273.63858     12397.56 
   98650    291.95672    246.34614   -3044.8713   -2610.6078   -440.55336    12412.496 
   98700    291.24113    246.32236   -3044.0787   -2610.8796   -642.40579    12426.993 
   98750    297.20956      246.596   -3053.2001   -2611.1234   -988.41371    12440.944 
   98800    289.87185     246.3371     -3044.57   -2613.4076   -877.09152    12454.181 
   98850    289.10574    246.28933   -3042.9777   -2612.9548   -1030.3645    12466.723 
   98900    284.69137     246.2468   -3041.5601   -2618.1033   -1091.8202     12478.51 
   98950    292.18367    246.43619   -3047.8731    -2613.272   -1377.3773    12489.494 
   99000    303.21135    246.89217   -3063.0724   -2612.0685   -1767.8884    12499.494 
   99050     282.8117    241.14685   -3038.2282   -2617.5672   -1180.6201    12508.356 
   99100    290.79509    241.47019   -3049.0064   -2616.4707   -1525.8635    12516.275 
   99150    287.69733    241.37401   -3045.8004   -2617.8724    -1567.573    12523.142 
   99200    286.11357    241.24348   -3041.4495   -2615.8772    -1586.247    12528.917 
   99250    282.01519    241.10741   -3036.9136   -2617.4373    -1555.947    12533.591 
   99300    280.36924     241.0054   -3033.5132   -2616.4852   -1548.3038    12537.186 
   99350    279.95903    241.06733   -3035.5778   -2619.1599   -1569.7846    12539.703 
   99400    278.27276    240.95454   -3031.8181   -2617.9085   -1496.8198    12541.152 
   99450    281.27166    241.06591   -3035.5304   -2617.1601    -1553.629    12541.554 
   99500    282.55287    241.13322   -3037.7741   -2617.4981   -1493.1784    12540.895 
   99550    277.02847    240.93045   -3031.0151   -2618.9563   -1278.7881    12539.219 
   99600    277.43035    240.98459   -3032.8196    -2620.163   -1371.3286    12536.606 
   99650      276.271    240.90094   -3030.0314   -2619.0992    -1348.665    12533.057 
   99700    283.26357    241.14993   -3038.3311    -2616.998   -1430.9392    12528.557 
   99750    278.69754    240.95827   -3031.9425    -2617.401   -1142.2025     12523.11 
   99800     284.6627    241.14898   -3038.2994   -2614.8852   -1317.7574    12516.838 
   99850    283.02135    241.13622   -3037.8741   -2616.9013   -1347.3893    12509.678 
   99900    285.08762    241.30201   -3043.4002    -2619.354    -1318.991    12501.591 
   99950    282.01711    241.11536   -3037.1786   -2617.6995   -1060.1036    12492.628 
  100000    292.93587    241.50342    -3050.114   -2614.3941   -1321.5444    12482.889 
Loop time of 27.0108 on 1 procs for 100000 steps with 500 atoms

Performance: 319.872 ns/day, 0.075 hours/ns, 3702.227 timesteps/s
99.7% CPU use with 1 MPI tasks x 1 OpenMP threads

MPI task timing breakdown:
Section |  min time  |  avg time  |  max time  |%varavg| %total
---------------------------------------------------------------
Pair    | 21.904     | 21.904     | 21.904     |   0.0 | 81.09
Bond    | 0.0068173  | 0.0068173  | 0.0068173  |   0.0 |  0.03
Neigh   | 0.5298     | 0.5298     | 0.5298     |   0.0 |  1.96
Comm    | 0.7725     | 0.7725     | 0.7725     |   0.0 |  2.86
Output  | 0.018174   | 0.018174   | 0.018174   |   0.0 |  0.07
Modify  | 2.7428     | 2.7428     | 2.7428     |   0.0 | 10.15
Other   |            | 1.037      |            |       |  3.84

Nlocal:    500 ave 500 max 500 min
Histogram: 1 0 0 0 0 0 0 0 0 0
Nghost:    1569 ave 1569 max 1569 min
Histogram: 1 0 0 0 0 0 0 0 0 0
Neighs:    14279 ave 14279 max 14279 min
Histogram: 1 0 0 0 0 0 0 0 0 0

Total # of neighbors = 14279
Ave neighs/atom = 28.558
Ave special neighs/atom = 0
Neighbor list builds = 641
Dangerous builds = 0

write_data      ${walker}/final_restart_file
write_data      13/final_restart_file

quit
