LAMMPS (19 May 2017)
Running on 16 partitions of processors
Step T0 T1 T2 T3 T4 T5 T6 T7 T8 T9 T10 T11 T12 T13 T14 T15
0 0 1 2 3 4 5 6 7 8 9 10 11 12 13 14 15
1000 1 0 3 2 5 4 7 6 9 8 11 10 12 13 14 15
2000 0 1 2 3 4 5 6 7 8 9 10 11 13 12 14 15
3000 1 0 2 3 5 4 7 6 9 8 11 10 12 13 14 15
4000 0 1 2 3 4 5 6 7 9 8 10 11 13 12 15 14
5000 1 0 3 2 5 4 7 6 9 8 11 10 12 13 15 14
6000 1 0 3 2 5 4 7 6 10 8 11 9 12 14 15 13
7000 0 1 2 3 4 5 7 6 10 9 11 8 13 14 15 12
8000 1 0 3 2 5 4 6 7 10 8 11 9 12 15 14 13
9000 1 0 3 2 5 4 6 8 10 7 12 9 11 15 14 13
10000 1 0 4 2 5 3 6 7 10 8 11 9 12 15 13 14
11000 1 0 4 2 6 3 5 8 10 7 11 9 12 15 13 14
12000 1 0 4 2 5 3 6 7 10 8 12 9 11 15 14 13
13000 2 0 4 1 6 3 5 8 10 7 11 9 12 15 13 14
14000 1 0 3 2 6 4 5 7 9 8 12 10 11 15 13 14
15000 1 0 3 2 7 5 4 6 9 8 13 11 10 14 12 15
16000 2 0 3 1 8 5 4 6 10 7 13 11 9 14 12 15
17000 1 0 3 2 7 6 4 5 9 8 13 11 10 14 12 15
18000 0 1 2 3 7 6 5 4 9 8 12 11 10 14 13 15
19000 0 1 2 4 8 6 5 3 10 7 12 11 9 14 13 15
20000 0 1 3 4 8 6 5 2 11 7 13 10 9 14 12 15
21000 0 2 3 4 7 5 6 1 11 8 13 9 10 14 12 15
22000 0 2 4 3 8 6 5 1 12 7 13 9 10 14 11 15
23000 0 2 3 4 8 6 5 1 12 7 13 9 10 14 11 15
24000 0 1 4 3 7 5 6 2 11 8 13 10 9 14 12 15
25000 0 1 4 2 7 5 6 3 11 8 12 10 9 14 13 15
26000 1 0 4 2 6 5 7 3 11 8 13 10 9 14 12 15
27000 1 0 3 2 6 5 7 4 12 8 14 10 9 13 11 15
28000 1 0 2 3 7 4 6 5 13 8 15 10 9 12 11 14
29000 1 0 3 2 6 5 7 4 12 9 15 10 8 13 11 14
30000 1 0 2 3 6 4 7 5 13 8 15 10 9 12 11 14
31000 2 0 1 4 6 3 7 5 13 8 15 9 10 11 12 14
32000 3 1 0 5 7 2 6 4 12 9 15 8 10 11 13 14
33000 3 1 0 5 8 2 6 4 11 10 15 7 9 12 14 13
34000 3 1 0 5 8 2 6 4 12 9 15 7 10 11 13 14
35000 3 0 1 4 9 2 7 5 13 8 14 6 11 10 12 15
36000 3 0 1 4 10 2 7 5 14 8 13 6 11 9 12 15
37000 3 1 0 5 11 2 6 4 15 9 12 7 10 8 13 14
38000 3 0 1 4 10 2 6 5 14 9 13 7 11 8 12 15
39000 4 0 1 3 9 2 5 6 14 10 13 8 11 7 12 15
40000 3 0 1 4 9 2 6 5 14 10 13 8 12 7 11 15
41000 2 1 0 5 8 3 7 4 14 10 13 9 12 6 11 15
42000 2 0 1 4 9 3 6 5 14 10 13 8 12 7 11 15
43000 2 0 1 4 9 3 6 5 14 10 13 8 12 7 11 15
44000 2 1 0 5 8 3 7 4 15 10 13 9 12 6 11 14
45000 1 2 0 5 8 3 7 4 15 10 13 9 11 6 12 14
46000 1 2 0 4 9 3 6 5 14 10 13 8 11 7 12 15
47000 0 2 1 5 9 3 7 4 15 10 12 8 11 6 13 14
48000 1 2 0 4 8 3 7 5 15 10 13 9 11 6 12 14
49000 0 2 1 5 9 3 7 4 15 11 12 8 10 6 13 14
50000 1 3 0 4 9 2 6 5 14 11 12 8 10 7 13 15
51000 1 3 0 5 9 2 7 4 15 11 12 8 10 6 13 14
52000 2 3 0 5 10 1 8 4 15 11 12 7 9 6 13 14
53000 1 4 0 5 9 2 8 3 15 12 11 7 10 6 13 14
54000 1 3 0 5 10 2 7 4 15 11 12 8 9 6 13 14
55000 1 2 0 5 11 3 7 4 15 10 12 9 8 6 13 14
56000 1 3 0 4 10 2 7 5 15 11 12 8 9 6 13 14
57000 0 3 1 5 11 2 7 4 14 10 12 9 8 6 13 15
58000 0 2 1 4 10 3 7 5 14 11 12 8 9 6 13 15
59000 1 2 0 4 11 3 7 5 14 10 12 9 8 6 13 15
60000 0 2 1 5 10 3 6 4 15 11 12 9 8 7 13 14
61000 1 3 0 4 10 2 6 5 14 11 12 9 8 7 13 15
62000 1 3 0 4 10 2 6 5 13 12 11 9 7 8 14 15
63000 1 3 0 4 10 2 6 5 14 11 12 9 7 8 13 15
64000 1 2 0 5 11 3 7 4 15 10 12 8 6 9 13 14
65000 0 3 1 4 10 2 6 5 14 11 13 9 7 8 12 15
66000 0 4 1 3 9 2 5 6 14 11 13 10 8 7 12 15
67000 0 3 1 4 10 2 5 6 14 11 13 9 7 8 12 15
68000 1 3 0 5 10 2 4 7 14 11 13 9 6 8 12 15
69000 0 3 1 5 11 2 4 6 14 10 12 9 7 8 13 15
70000 0 2 1 5 10 3 4 6 14 11 13 8 7 9 12 15
71000 1 3 0 5 10 2 4 7 15 11 12 9 6 8 13 14
72000 1 2 0 4 11 3 5 6 14 10 13 8 7 9 12 15
73000 0 3 1 5 11 2 4 7 14 10 13 9 6 8 12 15
74000 0 4 2 5 12 1 3 7 14 10 13 9 6 8 11 15
75000 1 4 2 5 12 0 3 7 14 10 13 8 6 9 11 15
76000 1 4 2 5 12 0 3 7 14 11 13 9 6 8 10 15
77000 1 4 3 5 12 0 2 7 14 10 13 8 6 9 11 15
78000 2 3 4 6 11 0 1 7 13 9 14 8 5 10 12 15
79000 3 2 4 7 10 1 0 6 13 8 15 9 5 11 12 14
80000 2 3 5 6 11 0 1 7 13 9 14 8 4 10 12 15
81000 2 3 5 6 11 0 1 8 13 9 14 7 4 10 12 15
82000 2 4 5 6 12 0 1 7 13 10 14 8 3 9 11 15
83000 2 4 5 6 13 0 1 7 12 11 14 8 3 9 10 15
84000 1 3 5 6 14 0 2 8 11 12 13 7 4 10 9 15
85000 1 4 6 5 14 0 2 7 12 11 13 8 3 10 9 15
86000 1 4 5 6 14 0 2 7 11 12 13 8 3 9 10 15
87000 1 3 6 5 14 0 2 7 11 12 13 8 4 10 9 15
88000 0 3 6 4 15 1 2 7 10 13 12 8 5 11 9 14
89000 1 3 6 4 14 0 2 7 10 13 12 8 5 11 9 15
90000 2 4 5 3 14 0 1 8 9 13 11 7 6 12 10 15
91000 1 3 6 4 13 0 2 8 9 14 11 7 5 12 10 15
92000 1 2 6 4 13 0 3 9 8 14 10 7 5 12 11 15
93000 1 3 6 5 13 0 2 8 9 15 10 7 4 12 11 14
94000 1 3 5 6 13 0 2 8 9 15 10 7 4 12 11 14
95000 2 4 6 5 14 0 1 7 9 15 10 8 3 12 11 13
96000 2 3 6 5 13 0 1 7 9 15 10 8 4 11 12 14
97000 2 4 6 5 14 0 1 8 9 15 10 7 3 12 11 13
98000 2 3 5 6 13 0 1 7 10 15 9 8 4 11 12 14
99000 3 2 4 7 12 0 1 6 11 15 8 9 5 10 13 14
100000 2 3 4 6 13 0 1 7 11 14 9 8 5 10 12 15
