LAMMPS (19 May 2017)
Running on 16 partitions of processors
Step T0 T1 T2 T3 T4 T5 T6 T7 T8 T9 T10 T11 T12 T13 T14 T15
0 0 1 2 3 4 5 6 7 8 9 10 11 12 13 14 15
1000 0 1 3 2 4 5 6 7 8 9 10 11 12 13 14 15
2000 1 0 2 3 5 4 7 6 9 8 11 10 12 13 14 15
3000 1 0 2 3 4 5 7 6 9 8 10 11 12 13 15 14
4000 1 0 2 3 5 4 7 6 9 8 11 10 13 12 15 14
5000 0 1 2 3 4 5 7 6 8 9 10 11 12 13 15 14
6000 0 1 2 4 3 6 8 5 7 9 10 11 12 13 15 14
7000 0 1 3 4 2 6 9 5 7 8 10 11 12 13 14 15
8000 1 0 3 4 2 7 8 5 6 9 10 11 13 12 14 15
9000 2 0 4 3 1 7 8 6 5 10 9 11 13 12 14 15
10000 1 0 3 4 2 7 8 5 6 10 9 12 13 11 14 15
11000 2 0 4 3 1 7 8 5 6 9 10 11 14 12 13 15
12000 2 0 3 4 1 8 7 5 6 9 10 11 13 12 14 15
13000 1 0 3 4 2 7 8 5 6 9 10 11 14 12 13 15
14000 1 0 3 4 2 8 7 5 6 10 9 11 13 12 14 15
15000 0 1 3 4 2 8 6 5 7 11 9 10 13 12 15 14
16000 0 1 3 4 2 7 6 5 8 12 9 10 14 11 15 13
17000 0 2 3 4 1 8 6 5 7 11 10 9 14 12 15 13
18000 0 3 2 5 1 8 7 4 6 10 11 9 15 13 14 12
19000 0 3 1 5 2 8 7 4 6 10 11 9 15 13 14 12
20000 0 3 1 4 2 8 6 5 7 10 11 9 14 12 15 13
21000 0 4 2 3 1 7 5 6 8 10 11 9 13 12 15 14
22000 0 3 2 4 1 7 6 5 8 10 12 9 14 11 15 13
23000 0 3 1 4 2 8 6 5 7 9 11 10 13 12 15 14
24000 0 3 1 4 2 7 6 5 8 9 11 10 13 12 15 14
25000 1 2 0 4 3 6 7 5 9 8 10 11 12 13 15 14
26000 0 2 1 4 3 7 6 5 8 9 11 10 13 12 14 15
27000 0 2 1 4 3 7 5 6 8 9 11 10 13 12 14 15
28000 0 3 1 4 2 6 5 7 9 8 10 11 12 13 14 15
29000 0 2 1 4 3 7 5 6 9 8 11 10 13 12 15 14
30000 1 3 0 4 2 6 5 7 8 9 10 11 13 12 14 15
31000 1 3 0 4 2 5 6 7 8 9 10 11 14 12 13 15
32000 0 2 1 5 3 4 6 7 9 8 11 10 14 12 13 15
33000 0 2 1 5 3 4 6 8 10 7 11 9 13 12 14 15
34000 0 1 2 6 4 3 5 8 10 7 11 9 14 12 13 15
35000 1 0 3 7 5 2 4 9 10 6 11 8 14 13 12 15
36000 2 0 3 8 6 1 4 10 9 5 12 7 13 14 11 15
37000 2 1 3 9 6 0 4 10 8 5 12 7 13 14 11 15
38000 2 0 3 8 6 1 5 10 9 4 12 7 13 14 11 15
39000 1 0 3 7 6 2 5 10 9 4 12 8 14 13 11 15
40000 1 0 3 8 6 2 5 10 9 4 11 7 13 14 12 15
41000 1 0 2 8 6 3 4 11 9 5 10 7 12 15 13 14
42000 0 1 2 8 6 3 4 11 9 5 10 7 12 14 13 15
43000 0 1 3 8 7 2 5 11 9 4 10 6 12 14 13 15
44000 0 1 2 8 6 3 4 11 9 5 10 7 12 15 13 14
45000 0 2 1 7 5 4 3 12 10 6 9 8 11 15 14 13
46000 1 3 0 6 5 4 2 12 11 7 9 8 10 15 14 13
47000 0 2 1 7 4 5 3 13 10 6 9 8 11 15 14 12
48000 1 3 0 6 5 4 2 13 10 7 9 8 11 14 15 12
49000 1 2 0 7 4 5 3 13 11 6 8 9 10 15 14 12
50000 1 3 0 6 4 5 2 13 11 7 8 9 10 14 15 12
51000 1 2 0 7 4 5 3 13 10 6 8 9 11 14 15 12
52000 2 1 0 7 4 5 3 14 9 6 8 10 12 13 15 11
53000 2 1 0 7 4 6 3 13 10 5 8 9 11 14 15 12
54000 2 1 0 7 4 5 3 13 9 6 8 10 11 14 15 12
55000 2 0 1 6 4 5 3 12 8 7 9 11 10 15 14 13
56000 3 1 0 7 5 4 2 12 9 6 8 10 11 15 14 13
57000 2 0 1 6 4 5 3 12 9 7 8 11 10 14 15 13
58000 2 1 0 7 5 4 3 13 9 6 8 11 10 15 14 12
59000 2 0 1 6 4 5 3 12 8 7 9 11 10 14 15 13
60000 2 1 0 6 5 4 3 13 8 7 9 11 10 14 15 12
61000 3 0 1 7 4 5 2 13 9 6 8 10 11 14 15 12
62000 4 0 2 7 3 6 1 14 10 5 8 9 12 13 15 11
63000 3 0 1 7 4 5 2 13 9 6 8 10 11 14 15 12
64000 3 0 1 6 5 4 2 13 8 7 9 10 11 14 15 12
65000 3 0 1 7 5 4 2 12 9 6 8 10 11 15 14 13
66000 4 0 2 8 5 3 1 12 10 6 7 9 11 15 14 13
67000 3 0 1 7 6 4 2 12 9 5 8 10 11 15 14 13
68000 2 0 1 6 7 4 3 12 8 5 9 11 10 14 15 13
69000 3 1 0 7 6 4 2 12 9 5 8 10 11 15 14 13
70000 2 1 0 7 6 5 3 12 8 4 9 11 10 15 14 13
71000 3 1 0 7 6 4 2 12 9 5 8 10 11 15 14 13
72000 3 1 0 6 7 5 2 13 9 4 8 11 10 14 15 12
73000 2 0 1 7 6 4 3 13 9 5 8 10 11 15 14 12
74000 2 0 1 7 6 4 3 13 10 5 8 9 11 15 14 12
75000 3 0 1 6 7 5 2 12 11 4 8 9 10 15 14 13
76000 2 0 1 7 6 4 3 13 10 5 8 9 11 14 15 12
77000 2 1 0 6 7 5 3 13 11 4 8 9 10 15 14 12
78000 1 2 0 6 8 5 4 14 12 3 7 10 9 15 13 11
79000 1 3 0 6 9 5 4 15 12 2 7 11 8 14 13 10
80000 1 3 0 7 8 5 4 15 12 2 6 11 9 14 13 10
81000 1 3 0 8 7 5 4 15 11 2 6 12 10 13 14 9
82000 1 3 0 7 8 5 4 15 11 2 6 12 9 14 13 10
83000 1 2 0 7 9 4 5 14 10 3 6 13 8 15 12 11
84000 2 1 0 7 10 3 6 13 9 4 5 14 8 15 12 11
85000 2 1 0 8 10 4 6 14 9 3 5 13 7 15 11 12
86000 1 2 0 7 10 3 5 13 9 4 6 14 8 15 12 11
87000 2 1 0 8 10 4 6 13 9 3 5 14 7 15 11 12
88000 2 1 0 9 11 5 7 12 8 3 4 15 6 14 10 13
89000 2 0 1 9 11 4 6 13 8 3 5 15 7 14 10 12
90000 1 0 2 10 11 4 6 13 8 3 5 15 7 14 9 12
91000 2 0 1 10 11 4 6 14 8 3 5 15 7 13 9 12
92000 3 1 0 11 10 5 6 15 9 2 4 14 7 13 8 12
93000 2 0 1 10 11 4 6 14 9 3 5 15 7 13 8 12
94000 2 0 1 9 12 4 5 14 10 3 6 15 8 13 7 11
95000 1 0 2 9 12 3 5 13 10 4 6 15 7 14 8 11
96000 1 0 2 9 12 4 5 13 10 3 6 15 7 14 8 11
97000 1 0 2 9 12 3 5 13 10 4 6 15 7 14 8 11
98000 1 0 2 9 12 3 5 13 10 4 6 15 7 14 8 11
99000 1 0 3 8 13 2 4 12 11 5 7 15 6 14 9 10
100000 1 0 3 9 12 2 5 13 10 4 7 14 6 15 8 11
