LAMMPS (19 May 2017)
Running on 16 partitions of processors
Step T0 T1 T2 T3 T4 T5 T6 T7 T8 T9 T10 T11 T12 T13 T14 T15
0 0 1 2 3 4 5 6 7 8 9 10 11 12 13 14 15
1000 1 0 3 2 5 4 6 7 8 9 11 10 12 13 14 15
2000 0 1 2 3 5 4 7 6 9 8 11 10 12 13 14 15
3000 0 1 3 2 5 4 6 7 8 9 10 11 12 13 14 15
4000 0 1 3 2 5 4 7 6 8 9 11 10 13 12 14 15
5000 0 1 3 2 5 4 6 7 9 8 10 11 12 13 14 15
6000 0 2 4 1 6 3 5 8 10 7 9 11 12 14 13 15
7000 1 2 5 0 6 3 4 8 10 7 9 11 12 15 13 14
8000 0 2 5 1 6 3 4 9 11 7 8 10 13 14 12 15
9000 0 2 5 1 6 4 3 9 11 8 7 10 13 14 12 15
10000 0 2 5 1 6 4 3 10 12 7 8 9 14 13 11 15
11000 0 2 5 1 6 4 3 10 11 7 8 9 14 13 12 15
12000 0 2 5 1 6 4 3 10 12 7 8 9 13 14 11 15
13000 0 1 5 2 6 3 4 10 11 7 8 9 14 13 12 15
14000 0 2 6 1 5 4 3 9 11 8 7 10 13 14 12 15
15000 0 2 7 1 5 4 3 9 10 8 6 11 13 14 12 15
16000 0 1 7 2 5 3 4 10 9 8 6 12 14 13 11 15
17000 0 2 8 1 6 4 3 9 10 7 5 12 13 14 11 15
18000 0 3 9 1 6 5 2 8 11 7 4 12 13 15 10 14
19000 0 3 9 2 5 6 1 7 11 8 4 12 14 15 10 13
20000 0 3 8 2 4 7 1 6 11 9 5 13 15 14 10 12
21000 0 3 7 1 4 8 2 6 12 9 5 13 15 14 10 11
22000 0 4 8 1 3 7 2 6 11 10 5 13 15 14 9 12
23000 0 4 8 2 3 7 1 5 12 10 6 13 15 14 9 11
24000 0 3 7 2 4 8 1 5 12 10 6 14 15 13 9 11
25000 1 2 6 3 5 9 0 4 13 10 7 14 15 12 8 11
26000 0 2 7 3 5 8 1 4 12 10 6 15 14 13 9 11
27000 0 2 7 3 6 8 1 4 11 10 5 15 14 13 9 12
28000 0 3 7 2 6 8 1 5 10 11 4 15 14 12 9 13
29000 1 2 6 3 7 8 0 5 11 10 4 15 14 13 9 12
30000 1 3 6 2 7 8 0 5 10 11 4 14 15 12 9 13
31000 2 4 5 1 8 7 0 6 9 11 3 14 15 12 10 13
32000 2 4 5 1 9 7 0 6 8 11 3 15 14 13 10 12
33000 2 3 6 1 10 7 0 5 8 11 4 15 14 13 9 12
34000 2 4 6 1 9 7 0 5 8 11 3 15 14 13 10 12
35000 3 4 6 1 8 7 0 5 9 11 2 14 15 12 10 13
36000 4 3 5 2 8 7 0 6 10 11 1 13 15 12 9 14
37000 4 3 5 2 9 6 1 7 10 11 0 13 14 12 8 15
38000 4 2 5 3 8 6 1 7 10 11 0 13 15 12 9 14
39000 3 2 5 4 8 6 1 7 9 12 0 13 15 11 10 14
40000 4 1 6 3 7 5 2 8 10 11 0 13 15 12 9 14
41000 5 0 6 3 7 4 2 8 10 11 1 12 14 13 9 15
42000 4 0 7 3 6 5 2 8 10 11 1 13 14 12 9 15
43000 4 1 7 2 6 5 3 8 10 11 0 12 15 13 9 14
44000 4 1 7 3 6 5 2 8 10 11 0 12 14 13 9 15
45000 3 1 8 4 5 6 2 7 9 12 0 11 14 13 10 15
46000 2 1 9 5 4 7 3 6 8 12 0 11 15 13 10 14
47000 3 1 8 4 5 6 2 7 9 12 0 11 15 13 10 14
48000 2 0 9 5 4 7 3 6 8 13 1 11 14 12 10 15
49000 3 0 8 4 5 6 2 7 9 12 1 11 15 13 10 14
50000 3 0 9 5 4 7 2 6 8 13 1 11 14 12 10 15
51000 2 1 9 4 5 6 3 7 8 13 0 11 15 12 10 14
52000 1 2 10 4 6 5 3 7 8 13 0 11 15 12 9 14
53000 1 2 9 3 5 6 4 8 7 14 0 11 15 12 10 13
54000 1 2 10 3 6 5 4 8 7 14 0 12 15 11 9 13
55000 0 3 10 2 7 5 4 9 6 15 1 13 14 11 8 12
56000 0 3 10 2 7 4 5 8 6 14 1 13 15 11 9 12
57000 0 3 11 2 7 5 4 9 6 14 1 13 15 10 8 12
58000 0 3 10 2 7 4 5 8 6 15 1 13 14 11 9 12
59000 1 3 11 2 7 4 5 9 6 15 0 13 14 10 8 12
60000 1 2 10 3 6 4 5 8 7 15 0 13 14 11 9 12
61000 1 3 10 2 6 4 5 9 7 15 0 12 14 11 8 13
62000 2 4 10 1 6 3 5 9 8 15 0 12 13 11 7 14
63000 1 3 9 2 6 4 5 10 8 15 0 11 14 12 7 13
64000 0 3 8 2 7 5 4 11 9 14 1 10 15 12 6 13
65000 1 2 9 3 6 4 5 11 8 15 0 10 14 13 7 12
66000 1 2 9 3 6 4 5 12 7 15 0 10 13 14 8 11
67000 2 1 9 3 6 4 5 11 8 15 0 10 14 13 7 12
68000 3 1 8 2 6 4 5 10 9 15 0 11 14 13 7 12
69000 2 0 9 3 7 5 4 10 8 15 1 11 14 12 6 13
70000 2 0 8 3 6 5 4 11 9 15 1 10 14 12 7 13
71000 2 0 9 3 7 5 4 10 8 15 1 11 14 12 6 13
72000 3 1 8 2 6 5 4 11 9 14 0 10 15 12 7 13
73000 2 0 8 3 6 5 4 11 9 14 1 10 15 12 7 13
74000 2 0 7 3 6 5 4 11 10 13 1 9 15 12 8 14
75000 3 1 7 2 6 4 5 11 10 12 0 8 15 13 9 14
76000 2 1 7 3 6 4 5 11 10 13 0 9 15 12 8 14
77000 2 1 7 3 6 5 4 11 10 12 0 8 14 13 9 15
78000 1 2 7 4 6 5 3 11 9 12 0 8 14 13 10 15
79000 1 3 6 5 7 4 2 10 9 13 0 8 15 12 11 14
80000 1 2 6 4 7 5 3 11 9 13 0 8 14 12 10 15
81000 2 1 6 3 8 5 4 11 10 14 0 7 13 12 9 15
82000 1 2 6 4 7 5 3 11 9 13 0 8 14 12 10 15
83000 0 3 7 5 6 4 2 10 8 13 1 9 14 12 11 15
84000 0 4 8 6 5 3 2 9 7 13 1 10 14 11 12 15
85000 0 3 7 6 5 4 1 10 8 14 2 9 13 11 12 15
86000 0 4 8 6 5 3 2 9 7 13 1 10 14 11 12 15
87000 0 4 8 5 6 3 2 9 7 14 1 10 13 12 11 15
88000 1 5 9 4 7 2 3 8 6 15 0 10 12 13 11 14
89000 0 5 8 4 6 3 2 9 7 14 1 11 12 13 10 15
90000 0 5 7 4 6 3 2 9 8 13 1 12 11 14 10 15
91000 0 5 7 3 6 4 2 10 8 14 1 12 11 13 9 15
92000 1 4 6 2 7 5 3 11 9 15 0 13 10 12 8 14
93000 0 4 7 2 6 5 3 10 9 14 1 12 11 13 8 15
94000 0 3 7 1 5 6 4 9 10 13 2 12 11 14 8 15
95000 0 4 8 1 6 5 3 10 9 14 2 11 12 13 7 15
96000 0 4 7 1 5 6 3 10 9 14 2 12 11 13 8 15
97000 0 4 8 2 6 5 3 9 10 14 1 11 12 13 7 15
98000 0 3 7 2 5 6 4 9 10 14 1 11 12 13 8 15
99000 0 2 7 3 5 6 4 8 11 15 1 10 13 12 9 14
100000 1 3 7 2 4 6 5 8 11 14 0 10 12 13 9 15
