LAMMPS (19 May 2017)
Running on 16 partitions of processors
Step T0 T1 T2 T3 T4 T5 T6 T7 T8 T9 T10 T11 T12 T13 T14 T15
0 0 1 2 3 4 5 6 7 8 9 10 11 12 13 14 15
1000 0 1 2 3 4 5 6 7 8 9 11 10 13 12 14 15
2000 0 1 3 2 4 5 7 6 9 8 11 10 13 12 14 15
3000 1 0 3 2 5 4 6 7 9 8 10 11 13 12 15 14
4000 0 1 3 2 5 4 7 6 8 9 11 10 12 13 14 15
5000 1 0 2 3 4 5 6 7 9 8 10 11 13 12 15 14
6000 2 0 1 4 3 6 5 7 9 8 10 11 13 12 15 14
7000 2 0 1 4 3 6 5 7 8 9 11 10 12 13 15 14
8000 3 0 1 5 2 7 4 6 8 9 11 10 13 12 15 14
9000 4 0 2 6 1 7 3 5 8 10 12 9 14 11 15 13
10000 3 0 2 5 1 7 4 6 8 10 12 9 14 11 15 13
11000 4 0 1 6 2 7 3 5 8 10 11 9 13 12 15 14
12000 4 0 2 5 1 8 3 6 7 10 12 9 14 11 15 13
13000 4 0 2 6 1 8 3 5 7 10 12 9 14 11 15 13
14000 3 0 1 5 2 8 4 6 7 10 12 9 14 11 15 13
15000 3 1 0 5 2 9 4 7 6 11 12 8 15 10 14 13
16000 4 2 0 5 1 9 3 7 6 12 11 8 15 10 14 13
17000 3 1 0 6 2 9 4 7 5 11 12 8 15 10 14 13
18000 2 1 0 6 3 8 4 7 5 11 12 9 14 10 15 13
19000 1 2 0 5 3 8 4 7 6 12 11 9 14 10 15 13
20000 0 3 1 5 2 9 4 6 7 13 10 8 15 11 14 12
21000 0 4 2 5 1 10 3 6 7 14 9 8 15 11 13 12
22000 0 4 2 6 1 9 3 5 7 14 10 8 15 11 13 12
23000 0 3 2 6 1 9 4 5 8 14 10 7 15 12 13 11
24000 0 4 2 6 1 10 3 5 7 14 9 8 15 12 13 11
25000 1 5 2 7 0 11 3 4 6 15 9 8 14 12 13 10
26000 1 4 2 7 0 11 3 5 6 15 9 8 14 13 12 10
27000 1 3 2 8 0 11 4 5 6 15 10 7 14 13 12 9
28000 0 2 3 9 1 11 5 4 6 14 10 7 15 12 13 8
29000 1 2 3 9 0 11 4 5 7 14 10 6 15 13 12 8
30000 0 2 3 8 1 10 5 4 7 14 11 6 15 12 13 9
31000 0 2 4 8 1 9 6 3 7 14 11 5 15 12 13 10
32000 0 3 5 9 1 8 6 2 7 14 10 4 15 13 12 11
33000 0 4 5 9 2 7 6 1 8 14 10 3 15 13 11 12
34000 0 3 6 10 1 7 5 2 8 13 9 4 15 14 12 11
35000 0 3 6 11 1 7 5 2 9 12 8 4 15 14 13 10
36000 0 3 5 12 2 8 6 1 9 11 7 4 15 13 14 10
37000 0 2 4 13 3 9 6 1 8 11 7 5 15 12 14 10
38000 1 3 5 13 2 9 6 0 8 11 7 4 14 12 15 10
39000 2 4 6 13 1 10 5 0 7 12 8 3 14 11 15 9
40000 1 3 5 13 2 10 6 0 8 11 7 4 14 12 15 9
41000 1 2 5 12 3 11 6 0 9 10 7 4 14 13 15 8
42000 1 3 4 13 2 10 6 0 9 11 7 5 15 12 14 8
43000 0 3 5 12 2 10 6 1 9 11 7 4 14 13 15 8
44000 0 2 4 13 3 10 6 1 8 11 7 5 15 12 14 9
45000 0 2 4 14 3 9 5 1 7 11 8 6 15 12 13 10
46000 0 2 5 15 3 9 4 1 7 11 8 6 14 13 12 10
47000 0 2 4 14 3 9 5 1 7 11 8 6 15 12 13 10
48000 0 2 4 14 3 9 5 1 6 10 8 7 15 12 13 11
49000 0 2 5 15 3 9 4 1 7 11 8 6 14 13 12 10
50000 1 3 5 14 2 9 4 0 6 11 8 7 15 12 13 10
51000 1 3 4 15 2 8 5 0 7 10 9 6 14 12 13 11
52000 2 4 3 15 1 7 6 0 8 10 9 5 14 11 13 12
53000 2 4 3 15 1 8 5 0 7 10 9 6 14 12 13 11
54000 1 3 4 15 2 7 5 0 8 9 10 6 13 12 14 11
55000 0 2 4 14 3 7 5 1 8 9 10 6 12 13 15 11
56000 1 2 4 15 3 6 5 0 8 9 11 7 12 13 14 10
57000 0 2 4 14 3 6 5 1 9 8 10 7 13 12 15 11
58000 1 2 5 15 3 6 4 0 8 9 11 7 12 13 14 10
59000 0 3 4 14 2 6 5 1 9 8 10 7 13 12 15 11
60000 1 2 4 15 3 6 5 0 8 9 10 7 12 13 14 11
61000 1 3 5 14 2 7 4 0 9 8 11 6 13 12 15 10
62000 1 3 5 14 2 7 4 0 10 8 11 6 13 12 15 9
63000 2 3 5 14 1 8 4 0 9 7 11 6 13 12 15 10
64000 2 3 4 15 0 8 5 1 9 6 10 7 12 13 14 11
65000 2 3 4 15 0 8 5 1 9 7 11 6 12 13 14 10
66000 1 4 3 15 0 8 6 2 10 7 12 5 11 14 13 9
67000 2 3 4 15 0 8 5 1 10 7 11 6 12 13 14 9
68000 2 3 4 15 0 9 5 1 11 6 10 7 13 12 14 8
69000 3 2 4 15 0 8 5 1 11 7 10 6 12 13 14 9
70000 2 3 5 15 1 8 4 0 11 7 10 6 12 13 14 9
71000 3 2 5 14 0 9 4 1 10 7 11 6 13 12 15 8
72000 2 3 5 14 1 8 4 0 10 6 11 7 12 13 15 9
73000 2 3 4 14 0 9 5 1 11 7 10 6 13 12 15 8
74000 1 4 3 13 0 9 6 2 12 7 10 5 14 11 15 8
75000 1 4 2 13 0 8 7 3 12 6 10 5 14 11 15 9
76000 0 5 2 13 1 9 7 3 12 6 10 4 15 11 14 8
77000 1 4 2 13 0 8 6 3 12 7 11 5 14 10 15 9
78000 2 3 1 14 0 7 6 4 11 8 12 5 13 10 15 9
79000 2 3 1 15 0 6 7 5 10 8 13 4 12 11 14 9
80000 2 3 1 15 0 6 7 4 11 9 13 5 12 10 14 8
81000 1 3 2 15 0 6 7 4 12 10 14 5 11 9 13 8
82000 2 3 1 15 0 6 7 4 11 9 13 5 12 10 14 8
83000 3 2 1 15 0 7 6 4 11 8 13 5 12 10 14 9
84000 3 2 1 15 0 7 5 4 12 8 13 6 11 9 14 10
85000 3 2 1 15 0 8 5 4 12 7 14 6 11 10 13 9
86000 4 1 2 15 0 7 5 3 12 8 13 6 11 9 14 10
87000 3 2 1 15 0 8 5 4 12 7 14 6 11 10 13 9
88000 3 2 1 15 0 8 4 5 13 6 14 7 10 11 12 9
89000 3 2 1 14 0 8 5 4 12 7 15 6 11 10 13 9
90000 3 1 2 14 0 7 6 4 11 8 15 5 12 10 13 9
91000 3 2 1 14 0 8 5 4 12 7 15 6 11 10 13 9
92000 2 3 1 14 0 9 4 5 12 7 15 6 10 11 13 8
93000 2 3 1 14 0 9 5 4 13 7 15 6 11 10 12 8
94000 1 4 2 14 0 10 6 3 13 8 15 5 11 9 12 7
95000 2 4 1 14 0 9 5 3 13 7 15 6 11 10 12 8
96000 1 4 2 14 0 9 6 3 13 8 15 5 12 10 11 7
97000 2 3 1 13 0 9 6 4 14 7 15 5 12 10 11 8
98000 1 4 2 14 0 10 5 3 13 8 15 6 12 9 11 7
99000 1 4 2 15 0 11 5 3 12 9 14 6 13 8 10 7
100000 1 4 2 14 0 10 5 3 13 8 15 6 12 9 11 7
