LAMMPS (19 May 2017)
Running on 16 partitions of processors
Step T0 T1 T2 T3 T4 T5 T6 T7 T8 T9 T10 T11 T12 T13 T14 T15
0 0 1 2 3 4 5 6 7 8 9 10 11 12 13 14 15
1000 1 0 2 3 5 4 6 7 9 8 10 11 12 13 14 15
2000 0 1 3 2 5 4 7 6 9 8 11 10 12 13 14 15
3000 0 1 2 3 4 5 7 6 8 9 10 11 12 13 15 14
4000 0 1 2 3 5 4 7 6 9 8 11 10 12 13 14 15
5000 0 1 3 2 4 5 7 6 8 9 11 10 12 13 14 15
6000 0 1 4 2 3 6 7 5 8 10 11 9 12 13 14 15
7000 1 0 4 3 2 7 6 5 9 11 10 8 13 12 15 14
8000 0 1 5 2 3 7 6 4 9 10 11 8 12 13 14 15
9000 0 1 5 2 3 7 6 4 10 9 12 8 11 14 13 15
10000 0 1 5 2 3 7 6 4 9 10 12 8 11 14 13 15
11000 0 2 6 1 3 7 5 4 9 10 12 8 11 13 14 15
12000 0 1 5 2 3 8 6 4 9 10 12 7 11 14 13 15
13000 0 1 6 2 4 7 5 3 9 10 12 8 11 13 14 15
14000 0 1 6 2 3 8 5 4 9 10 11 7 12 13 14 15
15000 1 0 6 2 3 8 4 5 9 10 11 7 13 12 14 15
16000 1 0 6 2 3 7 4 5 10 9 12 8 14 11 13 15
17000 2 0 6 1 3 8 4 5 9 10 11 7 14 12 13 15
18000 3 1 7 0 2 9 5 4 8 10 11 6 15 12 13 14
19000 3 1 7 0 2 10 5 4 8 9 12 6 15 11 13 14
20000 3 0 6 1 2 11 4 5 9 8 13 7 15 10 12 14
21000 3 0 6 2 1 11 4 5 9 8 14 7 15 10 12 13
22000 3 0 5 1 2 12 4 6 9 7 13 8 15 10 11 14
23000 3 0 5 1 2 12 4 6 10 8 14 7 15 9 11 13
24000 4 0 5 2 1 11 3 6 10 8 13 7 15 9 12 14
25000 5 0 4 2 1 10 3 7 11 8 13 6 14 9 12 15
26000 4 0 5 3 1 11 2 6 10 9 12 7 15 8 13 14
27000 3 0 6 4 1 11 2 5 9 10 12 8 15 7 13 14
28000 3 0 6 5 1 11 2 4 8 10 13 9 14 7 12 15
29000 3 0 7 5 1 11 2 4 9 10 12 8 14 6 13 15
30000 2 0 6 5 1 11 3 4 8 10 12 9 14 7 13 15
31000 2 0 5 6 1 12 4 3 7 10 11 9 13 8 14 15
32000 2 1 5 7 0 13 4 3 6 10 11 8 12 9 14 15
33000 1 2 5 8 0 14 3 4 6 10 12 7 11 9 13 15
34000 1 2 5 7 0 13 3 4 6 9 12 8 11 10 14 15
35000 0 2 4 6 1 12 3 5 7 9 13 8 10 11 15 14
36000 0 1 3 6 2 12 4 5 7 9 13 8 10 11 15 14
37000 1 0 3 7 2 13 4 5 6 9 12 8 11 10 14 15
38000 1 0 3 7 2 12 4 5 6 8 13 9 11 10 15 14
39000 1 0 3 8 2 11 4 6 5 7 14 10 12 9 15 13
40000 2 0 3 7 1 12 4 5 6 8 14 10 11 9 15 13
41000 3 0 2 6 1 13 5 4 7 9 15 11 10 8 14 12
42000 2 1 3 7 0 12 5 4 6 9 14 11 10 8 15 13
43000 2 1 3 7 0 13 5 4 6 9 15 10 11 8 14 12
44000 2 1 3 6 0 13 4 5 7 9 14 10 11 8 15 12
45000 1 2 3 6 0 14 4 5 8 10 13 9 12 7 15 11
46000 0 3 2 6 1 15 4 5 9 10 13 8 12 7 14 11
47000 1 2 3 6 0 15 4 5 9 10 13 8 12 7 14 11
48000 1 3 2 6 0 14 5 4 8 10 13 9 12 7 15 11
49000 1 3 2 6 0 15 4 5 9 10 12 8 13 7 14 11
50000 1 3 2 6 0 15 5 4 8 10 12 9 13 7 14 11
51000 1 3 2 7 0 15 5 4 8 10 12 9 13 6 14 11
52000 2 4 1 8 0 15 5 3 7 10 11 9 14 6 13 12
53000 1 3 2 7 0 15 5 4 8 9 11 10 13 6 14 12
54000 1 4 2 8 0 15 5 3 7 10 12 9 14 6 13 11
55000 1 4 3 9 0 14 5 2 6 10 12 8 15 7 13 11
56000 0 4 2 9 1 15 5 3 7 10 12 8 14 6 13 11
57000 1 4 3 9 0 15 5 2 6 10 12 8 14 7 13 11
58000 0 4 2 8 1 15 5 3 7 10 12 9 14 6 13 11
59000 1 5 3 9 0 15 4 2 6 10 12 8 14 7 13 11
60000 0 5 2 9 1 15 4 3 7 10 13 8 14 6 12 11
61000 1 4 3 9 0 15 5 2 6 11 13 8 14 7 12 10
62000 1 3 4 10 0 15 6 2 5 11 13 7 14 8 12 9
63000 1 4 3 9 0 15 6 2 5 12 13 8 14 7 11 10
64000 1 5 2 9 0 15 6 3 4 13 12 8 14 7 11 10
65000 1 5 2 9 0 14 6 3 4 13 12 8 15 7 11 10
66000 2 6 1 10 0 13 5 4 3 14 11 7 15 8 12 9
67000 2 6 1 9 0 14 5 3 4 13 12 7 15 8 11 10
68000 2 7 0 8 1 14 4 3 5 12 13 6 15 9 10 11
69000 2 7 0 9 1 15 5 3 4 13 12 6 14 8 10 11
70000 3 6 0 8 1 14 5 2 4 13 12 7 15 9 11 10
71000 2 7 1 9 0 15 4 3 5 13 12 6 14 8 10 11
72000 3 6 1 9 0 14 5 2 4 12 13 7 15 8 11 10
73000 3 7 1 8 0 15 4 2 5 12 13 6 14 9 10 11
74000 4 7 2 8 0 15 3 1 6 12 14 5 13 10 9 11
75000 5 7 3 9 0 15 2 1 6 13 14 4 12 11 8 10
76000 4 7 2 8 1 14 3 0 6 12 15 5 13 10 9 11
77000 4 7 3 9 0 15 2 1 6 13 14 5 12 11 8 10
78000 3 8 4 9 0 15 2 1 6 14 13 5 11 12 7 10
79000 3 8 4 9 1 15 2 0 6 14 13 5 11 12 7 10
80000 3 8 4 9 1 15 2 0 7 14 13 5 11 12 6 10
81000 4 7 3 9 2 15 1 0 8 14 13 6 12 11 5 10
82000 3 8 4 9 2 15 1 0 7 14 13 6 12 11 5 10
83000 3 9 5 8 2 14 0 1 7 15 12 6 13 11 4 10
84000 4 10 6 8 1 14 0 2 7 15 11 5 13 12 3 9
85000 3 9 5 8 2 14 0 1 7 15 11 6 13 12 4 10
86000 3 10 6 8 1 14 0 2 7 15 11 5 13 12 4 9
87000 4 10 5 7 1 13 0 2 8 15 11 6 14 12 3 9
88000 5 11 4 6 1 12 0 3 9 15 10 7 14 13 2 8
89000 5 10 4 6 1 13 0 3 8 14 11 7 15 12 2 9
90000 6 9 3 5 2 13 0 4 8 14 11 7 15 12 1 10
91000 5 10 3 6 1 13 0 4 8 14 12 7 15 11 2 9
92000 4 10 2 7 1 12 0 5 9 14 13 6 15 11 3 8
93000 5 10 2 7 0 12 1 4 8 14 13 6 15 11 3 9
94000 5 10 2 8 0 11 1 3 7 14 13 6 15 12 4 9
95000 6 10 2 8 0 12 1 3 7 13 14 5 15 11 4 9
96000 6 10 2 7 0 12 1 3 8 13 14 5 15 11 4 9
97000 6 10 1 8 0 11 2 4 7 14 13 5 15 12 3 9
98000 5 9 1 7 0 12 2 4 8 13 14 6 15 11 3 10
99000 4 9 0 6 1 12 2 5 8 13 14 7 15 11 3 10
100000 4 9 1 7 0 12 3 5 8 13 14 6 15 11 2 10
