LAMMPS (19 May 2017)
Processor partition = 8
  using 1 OpenMP thread(s) per MPI task
# gREM variables
variable        lambda world 1000 1005 1010 1015 1020 1025 1030 1035 1040 1045 1050 1055 1060 1065 1070 1075
variable        walker world 0 1 2 3 4 5 6 7 8 9 10 11 12 13 14 15
variable        replica world 1 0 3 9 12 2 5 13 10 4 7 14 6 15 8 11

variable        T0 equal 300.0
variable        press equal 0.0

units           real
atom_style      full
pair_style      lj/cut 5.0

# LJ particles
read_data       ${walker}/restart_file
read_data       8/restart_file
  orthogonal box = (0.985427 0.985427 0.985427) to (24.0146 24.0146 24.0146)
  1 by 1 by 1 MPI processor grid
  reading atoms ...
  500 atoms
  reading velocities ...
  500 velocities
  0 = max # of 1-2 neighbors
  0 = max # of 1-3 neighbors
  0 = max # of 1-4 neighbors
  1 = max # of special neighbors

#dump            dump all xyz 1000 ${walker}/dump.xyz

fix             fxnpt all npt temp ${T0} ${T0} 1000.0 iso ${press} ${press} 10000.0
fix             fxnpt all npt temp 300 ${T0} 1000.0 iso ${press} ${press} 10000.0
fix             fxnpt all npt temp 300 300 1000.0 iso ${press} ${press} 10000.0
fix             fxnpt all npt temp 300 300 1000.0 iso 0 ${press} 10000.0
fix             fxnpt all npt temp 300 300 1000.0 iso 0 0 10000.0
fix             fxgREM all grem ${lambda} -.03 -30000 fxnpt
fix             fxgREM all grem 1040 -.03 -30000 fxnpt
thermo_modify   press fxgREM_press

thermo          50
thermo_style    custom step temp f_fxgREM pe etotal press vol
WARNING: New thermo_style command, previous thermo_modify settings will be lost (../output.cpp:705)
timestep        1.0

temper/grem     100000 1000 ${lambda} fxgREM fxnpt 10294 98392 ${walker}
temper/grem     100000 1000 1040 fxgREM fxnpt 10294 98392 ${walker}
temper/grem     100000 1000 1040 fxgREM fxnpt 10294 98392 8
Neighbor list info ...
  update every 1 steps, delay 10 steps, check yes
  max neighbors/atom: 2000, page size: 100000
  master list distance cutoff = 7
  ghost atom cutoff = 7
  binsize = 3.5, bins = 7 7 7
  1 neighbor lists, perpetual/occasional/extra = 1 0 0
  (1) pair lj/cut, perpetual
      attributes: half, newton on
      pair build: half/bin/newton
      stencil: half/bin/3d/newton
      bin: standard
Per MPI rank memory allocation (min/avg/max) = 5.722 | 5.722 | 5.722 Mbytes
Step Temp f_fxgREM PotEng TotEng Press Volume 
       0    294.21426    232.34254   -3078.0846   -2640.4632    841.41959    12213.312 
      50    302.17452    232.57035   -3085.6783   -2636.2166    626.49933    12213.409 
     100    299.68795    232.41368    -3080.456   -2634.6929    731.87558     12213.65 
     150    303.13287     232.6554   -3088.5134   -2637.6262    448.79542    12214.072 
     200    318.39769    233.25237   -3108.4122   -2634.8198    -187.4168    12214.506 
     250    311.86857    233.01013   -3100.3376   -2636.4567    76.298126    12214.676 
     300    307.04792     232.8215     -3094.05   -2637.3395     305.6404    12214.679 
     350    323.56959    233.35928   -3111.9761   -2630.6908   -151.25332    12214.583 
     400    304.30138    232.76235   -3092.0782    -2639.453    411.56292     12214.26 
     450    308.04847    232.92109   -3097.3697   -2639.1709    299.66094    12213.906 
     500    308.82378    232.96722   -3098.9075   -2639.5555    275.36715    12213.499 
     550    290.84408    232.36084   -3078.6947   -2646.0862    783.82627    12213.076 
     600    309.73582    233.03819   -3101.2731   -2640.5646    206.12061    12212.818 
     650    308.77834     232.9603   -3098.6766   -2639.3922    276.34407    12212.498 
     700    307.80924    232.91155   -3097.0517   -2639.2088    330.07672     12212.11 
     750    311.10178    233.06813   -3102.2708   -2639.5305     164.8659    12211.683 
     800    307.38501    232.98801   -3099.6003   -2642.3884    218.33898    12211.154 
     850     306.5462    233.05719   -3101.9062   -2645.9419    184.92943     12210.53 
     900    299.69129    232.75803   -3091.9343   -2646.1662    402.26286    12209.827 
     950    308.47684    233.10489   -3103.4964   -2644.6605     50.30272    12209.101 
    1000     305.9995    233.02922   -3100.9741    -2645.823    110.60593    12208.217 
    1050    297.68856    237.76302   -3092.1006   -2649.3114    336.39533    12207.214 
    1100    313.69803    238.43965    -3114.655   -2648.0529   -235.92631    12206.147 
    1150     303.4223     238.1769   -3105.8967   -2654.5791    1.4060509    12204.804 
    1200    304.18025     238.2323   -3107.7433   -2655.2982   -12.783636    12203.243 
    1250    297.17905     237.9987   -3099.9566   -2657.9253    269.44503    12201.496 
    1300    294.04149    237.89322   -3096.4406   -2659.0762    381.80722    12199.719 
    1350    305.11083    238.35673   -3111.8911   -2658.0619    54.230866    12197.937 
    1400    280.97097    237.56827   -3085.6091    -2667.686    754.79069    12196.082 
    1450    294.98581    238.12105    -3104.035    -2665.266    259.86311    12194.376 
    1500    294.98664    238.13136   -3104.3786   -2665.6083    276.27599    12192.663 
    1550    297.73365    238.29439    -3109.813   -2666.9567    225.56585    12190.906 
    1600    293.61658    238.15406   -3105.1354    -2668.403    299.95702    12189.104 
    1650    300.63807     238.4131   -3113.7699   -2666.5935    20.179164    12187.249 
    1700     298.6818    238.41285   -3113.7615    -2669.495    68.234925    12185.244 
    1750    305.04767     238.6648   -3122.1599   -2668.4246   -92.219368    12183.082 
    1800    283.38322    238.00531    -3100.177    -2678.666    592.03525    12180.716 
    1850    278.87776    237.85625   -3095.2085   -2680.3989    718.83406    12178.459 
    1900    293.19559    238.42789    -3114.263   -2678.1568     195.9094    12176.377 
    1950    275.23348    237.82492    -3094.164    -2684.775    673.23094    12174.287 
    2000    289.88709    238.44389   -3114.7962   -2683.6111     90.77311    12172.325 
    2050     284.1792    238.18945   -3106.3151   -2683.6201    200.85641    12170.294 
    2100    306.29279    238.99556   -3133.1853    -2677.598   -431.88598    12168.119 
    2150    288.97472     238.4687   -3115.6233   -2685.7953    163.71875    12165.605 
    2200    289.81794    238.59105   -3119.7016   -2688.6193     143.7076    12162.959 
    2250    290.49433    238.57151   -3119.0502   -2686.9619    82.063027    12160.214 
    2300    291.21698    238.63768   -3121.2559   -2688.0927    44.389931    12157.333 
    2350    283.95262    238.37092   -3112.3639   -2690.0059    331.58298    12154.318 
    2400     279.2434    238.17907   -3105.9691   -2690.6157    519.71918    12151.302 
    2450    287.80026     238.4184   -3113.9465   -2685.8654    264.34675    12148.382 
    2500    290.63127    238.52407    -3117.469   -2685.1771    226.19204    12145.428 
    2550    284.17092    238.27008   -3109.0026   -2686.3199     525.8138     12142.44 
    2600    292.49387     238.7158   -3123.8598   -2688.7974    342.20452    12139.519 
    2650    289.15193    238.61962    -3120.654   -2690.5625    505.05519    12136.622 
    2700    290.63317    238.65358   -3121.7859    -2689.491    507.65376    12133.804 
    2750    295.59276    238.76243   -3125.4144   -2685.7426    488.07854    12131.072 
    2800     299.3167    238.91773   -3130.5909   -2685.3799    365.70112    12128.408 
    2850    295.58037    238.82757   -3127.5856   -2687.9321     390.0302     12125.77 
    2900    284.67689    238.38788   -3112.9292   -2689.4939    801.58697    12123.175 
    2950    284.67751    238.40795   -3113.5983   -2690.1621    895.66932    12120.823 
    3000    296.61654    238.78669   -3126.2231   -2685.0285    547.97198    12118.749 
    3050    299.03374    233.82181   -3127.3936   -2682.6036    539.81765    12116.803 
    3100    289.89505    233.47119   -3115.7063   -2684.5094    853.56301    12114.971 
    3150    295.48528    233.77013    -3125.671    -2686.159    590.85819    12113.367 
    3200     294.4661    233.83858   -3127.9525   -2689.9565    585.30141    12111.907 
    3250    281.52731    233.29956   -3109.9854   -2691.2348    989.19633    12110.591 
    3300    307.41518    234.19938   -3139.9792   -2682.7225    155.03319    12109.542 
    3350    297.44031    233.84911   -3128.3036   -2685.8837    475.83483    12108.456 
    3400    291.80564     233.6628   -3122.0932   -2688.0544    642.68767    12107.415 
    3450    306.91306    234.12282   -3137.4274   -2680.9175      120.794    12106.487 
    3500    299.18933     233.8531   -3128.4368   -2683.4153    415.27597    12105.477 
    3550    295.26614    233.70093   -3123.3645   -2684.1785    691.85728    12104.475 
    3600    297.21094    233.80022   -3126.6739   -2684.5951    757.82549    12103.619 
    3650    290.56188    233.61666   -3120.5554   -2688.3666    981.21563    12103.004 
    3700    299.69026    233.87831   -3129.2771   -2683.5106    723.09228    12102.692 
    3750    295.93174    233.73205   -3124.4018   -2684.2257    807.42248     12102.58 
    3800    303.80253    234.05765   -3135.2551   -2683.3719    471.21217    12102.689 
    3850    311.54638    234.20683   -3140.2277   -2676.8261    282.94289    12102.854 
    3900    299.50312      233.823   -3127.4333   -2681.9451    630.66423    12103.003 
    3950    296.09242    233.64162   -3121.3872   -2680.9721      717.548    12103.276 
    4000    305.05551    234.01701   -3133.9003   -2680.1534    344.45484    12103.707 
    4050     307.6782    239.16237   -3138.7457   -2681.0976    215.02182    12104.153 
    4100    290.21816    238.45798   -3115.2659   -2683.5884    898.17669    12104.561 
    4150    290.17892    238.47392   -3115.7972   -2684.1781    950.73446    12105.239 
    4200    300.83146    238.74939   -3124.9796   -2677.5156     641.8441    12106.251 
    4250    298.81804    238.77651   -3125.8836   -2681.4144    671.17127     12107.43 
    4300    294.30583    238.63639    -3121.213   -2683.4554    811.34013    12108.793 
    4350     306.8938    239.06374   -3135.4581   -2678.9768    372.24937    12110.381 
    4400    305.22939    238.95796    -3131.932   -2677.9264    470.71187    12112.019 
    4450      296.945      238.709   -3123.6332   -2681.9501    745.70303    12113.742 
    4500    290.16827    238.46236   -3115.4119   -2683.8086     843.8318    12115.686 
    4550    283.45697    238.19331   -3106.4436   -2684.8229    948.63054    12117.919 
    4600    302.14079     238.8305   -3127.6832   -2678.2717    348.73492    12120.451 
    4650    303.23714     238.8154   -3127.1799   -2676.1377     331.1856    12123.027 
    4700    288.20848    238.28853   -3109.6178   -2680.9295    839.76849    12125.621 
    4750    293.11968     238.4562   -3115.2066   -2679.2133    733.64059    12128.472 
    4800    292.44099    238.47128   -3115.7093   -2680.7255    708.93489     12131.56 
    4850     277.9076     237.8608   -3095.3601   -2681.9936    1122.7134    12134.883 
    4900    294.48484    238.46037   -3115.3458   -2677.3219    561.63226    12138.576 
    4950    298.44303    238.51588   -3117.1961   -2673.2847    430.02713    12142.429 
    5000    302.14885    238.60979   -3120.3262   -2670.9026    337.17873    12146.329 
    5050    299.54974    233.62807   -3120.9357   -2675.3781    297.67998    12150.235 
    5100    292.10835    233.26186   -3108.7288   -2674.2398    522.01647    12154.124 
    5150    283.18871     232.9274   -3097.5801   -2676.3583    748.09136    12158.115 
    5200    303.86752    233.69565   -3123.1884   -2671.2085    2.1784809    12162.276 
    5250    304.72711    233.72327   -3124.1091   -2670.8506    -149.7483    12166.293 
    5300    298.32565    233.49989    -3116.663   -2672.9262    95.786537    12170.062 
    5350    301.21731     233.4498   -3114.9932   -2666.9553    96.397869    12173.683 
    5400    304.14392    233.64929    -3121.643   -2669.2519   -82.929673    12177.148 
    5450    292.49831    233.26456   -3108.8186   -2673.7496      200.793    12180.407 
    5500    303.86226    233.59131   -3119.7103   -2667.7382   -125.27011    12183.546 
    5550    303.98516    233.62584   -3120.8612   -2668.7063   -136.61747    12186.445 
    5600    301.02995    233.36497   -3112.1655   -2664.4063   -11.047243     12189.08 
    5650     286.9277    232.99013   -3099.6709   -2672.8877    244.20875    12191.532 
    5700    297.98701    233.39564    -3113.188   -2669.9549   -202.88631    12193.883 
    5750     306.5093    233.65243   -3121.7478   -2665.8384    -422.2271    12195.945 
    5800    302.88085    233.44871    -3114.957   -2664.4447   -252.40947    12197.603 
    5850    294.46023    233.19757   -3106.5858   -2668.5986   -56.571384    12198.938 
    5900    289.17476    232.99954   -3099.9846   -2669.8591    224.28953    12200.033 
    5950    301.55079    233.27439   -3109.1463   -2660.6124   -35.152281    12201.038 
    6000    304.83639     233.3464   -3111.5466   -2658.1256   -146.80692    12201.848 
    6050    285.29181    232.65224   -3088.4082   -2664.0582    492.06571    12202.397 
    6100    308.18409    233.51794   -3117.2647   -2658.8642   -186.00533     12202.94 
    6150    305.10747    233.39075   -3113.0251   -2659.2009   -107.18017    12203.234 
    6200     297.1817    233.06931   -3102.3103    -2660.275    184.44155    12203.281 
    6250    311.99281    233.49204   -3116.4015   -2652.3358    -149.3039    12203.192 
    6300    294.88304    233.06451   -3102.1502   -2663.5341     403.5267    12202.863 
    6350     302.2989     233.2071   -3106.9032   -2657.2565    187.31348    12202.516 
    6400    307.57494     233.3687     -3112.29   -2654.7956   -9.9257458    12202.086 
    6450    295.71856     232.9601   -3098.6699   -2658.8109    397.54665    12201.487 
    6500    309.31091    233.32647   -3110.8823   -2650.8058    8.0029804    12200.853 
    6550    311.76281    233.36115   -3112.0383   -2648.3147   -58.971337    12200.033 
    6600    297.33474    232.91443   -3097.1477   -2654.8848    424.22311    12199.005 
    6650    304.26479    233.06525   -3102.1749   -2649.6041    289.63148    12197.967 
    6700    296.97522    232.71848   -3090.6159   -2648.8878    477.84906    12196.916 
    6750    320.92453    233.59899   -3119.9662   -2642.6153   -269.34483    12195.836 
    6800    302.20704    232.94902   -3098.3007   -2648.7906    271.16708    12194.497 
    6850    322.55785    233.58323    -3119.441   -2639.6606   -174.64318    12193.026 
    6900    310.57798    233.15188   -3105.0628   -2643.1016    319.14676    12191.298 
    6950    307.05352    233.01539   -3100.5132   -2643.7943    475.28495     12189.51 
    7000    315.42449    233.28677   -3109.5591   -2640.3891    257.32629    12187.742 
    7050    301.54901    237.80855   -3093.6182   -2645.0869    652.20226    12185.946 
    7100     307.9671    237.93718   -3097.9062   -2639.8284     549.5708    12184.279 
    7150    298.70371    237.58487   -3086.1623   -2641.8632    870.06495    12182.761 
    7200    315.92536    238.17948   -3105.9828   -2636.0678    333.64293    12181.465 
    7250    320.36213    238.31312   -3110.4373   -2633.9229    234.30939    12180.178 
    7300    322.61458    238.35474   -3111.8248   -2631.9601    228.63701    12178.821 
    7350    312.41695     237.9647   -3098.8234   -2634.1269    660.92323    12177.396 
    7400    302.11329    237.64781   -3088.2604   -2638.8898    1082.5252    12176.135 
    7450    310.74491     237.9038   -3096.7933   -2634.5838    986.34554    12175.241 
    7500    306.14846    237.69908   -3089.9694   -2634.5968    1280.5365    12174.713 
    7550     312.4829    237.89532   -3096.5106    -2631.716    1075.1841    12174.657 
    7600    321.38406    238.18134   -3106.0447   -2628.0102    723.31573    12174.976 
    7650    317.52537    237.97302   -3099.1008   -2626.8059    887.71754    12175.519 
    7700    305.98904    237.59355   -3086.4516    -2631.316    1255.9512    12176.368 
    7750    305.41157    237.51437   -3083.8124   -2629.5359    1223.3212    12177.686 
    7800    319.16296    237.92419    -3097.473   -2622.7423    738.98618    12179.448 
    7850    323.21811    238.06523   -3102.1743   -2621.4118    560.20143    12181.432 
    7900    319.87396    237.88745   -3096.2482   -2620.4599    721.21933    12183.543 
    7950    318.81048    237.87881   -3095.9602   -2621.7538    689.06946    12185.861 
    8000    315.93838    237.77568   -3092.5227   -2622.5883    734.68835    12188.373 
    8050    300.48498    237.21072   -3073.6908   -2626.7421    1245.0629    12191.131 
    8100     312.0415    237.52852    -3084.284   -2620.1459    978.63918    12194.343 
    8150    318.02858    237.62475   -3087.4917   -2614.4483    813.19081    12197.938 
    8200    326.62132    237.91226   -3097.0753   -2611.2508      494.313    12201.775 
    8250    319.82514     237.7534     -3091.78   -2616.0643    595.29778    12205.727 
    8300    312.41599    237.46551   -3082.1837   -2617.4886    749.42784    12209.813 
    8350    305.53081    237.10055   -3070.0185   -2615.5645    960.75575    12214.136 
    8400    319.44903    237.61951   -3087.3169   -2612.1607    452.30637    12218.767 
    8450    308.81054    237.17013   -3072.3378   -2613.0055    733.99762    12223.523 
    8500    306.26492    237.04834   -3068.2779   -2612.7321    950.62176    12228.489 
    8550    305.19258    237.09386   -3069.7953   -2615.8444    1040.1692    12233.815 
    8600    317.44619    237.44714   -3081.5714   -2609.3942    601.97418    12239.528 
    8650    314.18526    237.36032   -3078.6772   -2611.3504    651.56013    12245.411 
    8700    301.74632    236.83935   -3061.3116   -2612.4869    1005.8419    12251.503 
    8750    319.36077     237.4567   -3081.8899    -2606.865    353.91512    12257.943 
    8800    329.05348     237.8033   -3093.4434   -2604.0013   -35.404917    12264.413 
    8850    317.30616    237.33054   -3077.6845   -2605.7157    308.69192    12270.736 
    8900    313.31081     237.2262   -3074.2066   -2608.1805    365.82299    12277.051 
    8950    314.51677    237.20923   -3073.6409   -2605.8211    283.04395    12283.381 
    9000    316.46389    237.31987   -3077.3291   -2606.6131    197.15286    12289.688 
    9050    305.77025     241.9717   -3065.7232   -2610.9132     455.2175    12295.973 
    9100     313.5335    242.28246   -3076.0822   -2609.7248    150.70829    12302.322 
    9150    307.09603    241.93028   -3064.3428   -2607.5607    288.07621    12308.642 
    9200    308.36363     242.0744   -3069.1468   -2610.4793    57.562572    12314.944 
    9250    314.17541     242.2774   -3075.9132   -2608.6011   -189.16715     12321.13 
    9300    312.60707     242.1744   -3072.4801   -2607.5008   -77.149608    12327.077 
    9350    295.80582     241.5741   -3052.4701   -2612.4814    420.59328     12332.85 
    9400    295.05625    241.51671    -3050.557   -2611.6832    428.49841    12338.665 
    9450    304.96803    241.87413   -3062.4709   -2608.8541   -27.540886    12344.555 
    9500    307.62431    242.11024   -3070.3412   -2612.7733   -333.46416    12350.275 
    9550    298.36984    241.72628   -3057.5427   -2613.7401   -205.93427    12355.674 
    9600    309.02108    242.12303   -3070.7676   -2611.1221   -616.81538     12360.76 
    9650     299.3227    241.83646   -3061.2153   -2615.9955   -374.23271    12365.401 
    9700    296.96021     241.8627   -3062.0902   -2620.3843   -408.97268    12369.648 
    9750     297.1003    241.88482   -3062.8273   -2620.9132    -433.5321    12373.499 
    9800    294.49038    241.70996   -3056.9985   -2618.9664   -328.29689    12376.975 
    9850    296.84708     241.7931   -3059.7702   -2618.2326    -457.6669    12380.086 
    9900    285.30498    241.44305   -3048.1017   -2623.7322   -318.64671     12382.82 
    9950    308.69504    242.28199   -3076.0665    -2616.906   -1160.3988    12385.144 
   10000     305.8232     242.2542   -3075.1401   -2620.2513    -1150.966    12386.697 
   10050    299.12991    237.02006   -3067.3353   -2622.4022   -918.36385    12387.424 
   10100    288.41496    236.69223   -3056.4076   -2627.4122   -501.79647    12387.439 
   10150    292.58049     236.9657   -3065.5232   -2630.3319   -564.03169    12386.959 
   10200    288.30558    236.79592   -3059.8641   -2631.0314   -447.87597    12385.999 
   10250    296.25609    237.04798   -3068.2661   -2627.6076   -760.81924    12384.558 
   10300    297.22702    237.16563   -3072.1877   -2630.0851    -898.1479    12382.509 
   10350    291.96449    236.96893   -3065.6309   -2631.3558   -717.94196    12379.761 
   10400    299.35498    237.18972   -3072.9908    -2627.723      -940.93     12376.39 
   10450     308.3218    237.57227   -3085.7422   -2627.1369   -1181.8743    12372.283 
   10500    291.57555    237.08264   -3069.4215   -2635.7249    -742.8419    12367.351 
   10550    314.11297    237.83572    -3094.524   -2627.3047   -1424.1113    12361.709 
   10600    289.30743    237.06956   -3068.9855   -2638.6626    -604.6235    12355.139 
   10650    280.49672    236.81576   -3060.5253   -2643.3077   -231.45662     12347.97 
   10700    274.51912    236.52376   -3050.7919   -2642.4655    41.666911    12340.469 
   10750    277.76063    236.71695   -3057.2317   -2644.0838   -26.885534    12332.769 
   10800     308.4028    237.85557   -3095.1857   -2636.4599   -949.49721    12324.775 
   10850    294.94902    237.41961   -3080.6535   -2641.9392   -555.62447    12316.106 
   10900    300.49754    237.61859   -3087.2864   -2640.3191   -620.28761    12306.859 
   10950    300.01188    237.76261   -3092.0871   -2645.8422   -597.77339     12297.06 
   11000    304.79238    237.88553   -3096.1842   -2642.8286   -653.42559    12286.689 
   11050     301.8916    237.81582   -3093.8607   -2644.8198   -502.58449    12275.741 
   11100    300.85505    237.77763   -3092.5876   -2645.0885   -319.35687    12264.278 
   11150     284.2848    237.31343   -3077.1142   -2654.2621    249.58088     12252.43 
   11200    288.92794    237.52002   -3084.0006   -2654.2422    225.53269    12240.459 
   11250    296.43144    237.78779   -3092.9262   -2652.0069    78.083756    12228.389 
   11300    310.03471    238.28669   -3109.5563   -2648.4031   -309.74833     12216.11 
   11350    302.07366    238.18159   -3106.0531   -2656.7414   -27.162255    12203.472 
   11400    297.41528    238.03923   -3101.3077    -2658.925    319.34104    12190.581 
   11450    292.02432    237.89898   -3096.6325   -2662.2685    683.21728    12177.647 
   11500    298.37134    238.19751   -3106.5837   -2662.7789    620.37279     12164.84 
   11550     296.2778    238.08993   -3102.9975   -2662.3068    863.20277     12152.17 
   11600    300.82491    238.26925   -3108.9749   -2661.5207    893.39312     12139.72 
   11650    296.58898    238.19207   -3106.4023   -2665.2487    1151.4179    12127.543 
   11700    296.69978    238.22805   -3107.6016   -2666.2832    1234.2443     12115.78 
   11750    310.79581    238.79446   -3126.4821   -2664.1969    833.62824    12104.442 
   11800    306.12734    238.70673   -3123.5578   -2668.2165    1024.1509    12093.377 
   11850    295.59976    238.34319   -3111.4397   -2671.7574    1449.2964    12082.671 
   11900    304.30204    238.68662   -3122.8875   -2670.2612    1303.6603    12072.489 
   11950    303.55127    238.62088   -3120.6959   -2669.1864    1447.0779    12062.828 
   12000    319.80964    239.20399   -3140.1329   -2664.4403    992.88913    12053.696 
   12050    289.52609    238.12525   -3104.1751    -2673.527    1960.5069    12044.967 
   12100    300.49509    238.65689   -3121.8963   -2674.9327    1710.5407    12036.996 
   12150    301.42106    238.75437   -3125.1456   -2676.8046    1798.8821    12029.771 
   12200    293.87451    238.46717   -3115.5722   -2678.4561    2052.9862    12023.319 
   12250     311.2658    239.12053   -3137.3511   -2674.3668    1484.2223    12017.712 
   12300    311.52561    239.22168   -3140.7226   -2677.3519    1420.4809    12012.727 
   12350    322.58276    239.61787    -3153.929   -2674.1116    1026.9701    12008.281 
   12400    312.50902    239.33562   -3144.5208   -2679.6873    1350.0102    12004.201 
   12450    292.26233    238.74948   -3124.9826   -2690.2645    2029.5107    12000.647 
   12500    300.60368    239.11482   -3137.1605   -2690.0353    1784.3992    11997.944 
   12550    298.21069    239.08905   -3136.3015   -2692.7357    1845.1622    11996.029 
   12600    305.56312    239.39774   -3146.5912   -2692.0892    1536.9457    11994.882 
   12650    307.35562    239.44383   -3148.1278   -2690.9596    1306.2305    11994.378 
   12700    304.27211    239.31579   -3143.8595   -2691.2778    1329.1982    11994.394 
   12750    290.94553    238.98319   -3132.7729   -2700.0135    1745.5143    11994.953 
   12800    296.14567     239.1629   -3138.7632    -2698.269    1531.7339    11996.219 
   12850    306.51115    239.58137   -3152.7122   -2696.8001    1113.2059    11998.102 
   12900    286.85573    239.01845   -3133.9483   -2707.2722    1666.8762    12000.451 
   12950    286.92651    239.04501   -3134.8336   -2708.0522    1557.0816    12003.491 
   13000    305.42147     239.6962   -3156.5398   -2702.2486    860.74888    12007.165 
   13050    308.06362    239.75808   -3158.6027   -2700.3815    781.50394    12011.155 
   13100    280.93288    238.89496   -3129.8319   -2711.9655    1512.6604    12015.434 
   13150    299.85052     239.6063   -3153.5434   -2707.5385    741.93277    12020.268 
   13200    298.07933    239.60155   -3153.3851   -2710.0147    626.69696    12025.403 
   13250    283.03443    239.05447   -3135.1492   -2714.1569    1089.5406    12030.747 
   13300    279.56126    238.92307   -3130.7689   -2714.9427    1136.4334    12036.503 
   13350       286.73    239.12985   -3137.6616   -2711.1724    811.98546    12042.683 
   13400    293.67462    239.38456    -3146.152   -2709.3333    503.07823    12049.141 
   13450     293.1432    239.42973   -3147.6576   -2711.6293    460.53206    12055.743 
   13500    284.65727    239.07599   -3135.8662   -2712.4601    701.59049    12062.465 
   13550    283.00231    238.99066   -3133.0221   -2712.0777    685.10749    12069.396 
   13600    273.03307    238.64699   -3121.5665   -2715.4505    970.86124    12076.577 
   13650    287.42156    239.17327   -3139.1091   -2711.5913      472.208    12084.093 
   13700    292.08826    239.27535   -3142.5115   -2708.0524    199.40308    12091.735 
   13750    293.12801    239.23179   -3141.0597    -2705.054    126.38316    12099.345 
   13800    283.64511    238.90011   -3130.0037   -2708.1031    426.27038    12106.901 
   13850    287.10728    239.00442   -3133.4808   -2706.4305    208.85234    12114.507 
   13900    286.07915    238.93419   -3131.1395   -2705.6185    118.98379    12122.091 
   13950    287.45946    238.94087   -3131.3625   -2703.7883    76.088377    12129.587 
   14000      280.917    238.79026   -3126.3421   -2708.4993    203.63995    12136.994 
   14050    279.84186    238.73416   -3124.4719   -2708.2284      111.707     12144.35 
   14100    291.32269    239.07692   -3135.8972   -2702.5768   -384.78952    12151.596 
   14150    283.60381     238.8224   -3127.4132   -2705.5741   -214.74062    12158.525 
   14200    276.71564    238.48688   -3116.2294   -2704.6359   -13.641103    12165.199 
   14250    282.79561     238.7033   -3123.4432   -2702.8062    -274.3901    12171.692 
   14300    288.14146    238.81206   -3127.0686   -2698.4801   -393.66541    12177.889 
   14350    283.62274    238.58914   -3119.6379   -2697.7705   -202.03256    12183.731 
   14400    277.40306    238.28599    -3109.533    -2696.917    16.229335    12189.325 
   14450    293.51478    238.77137   -3125.7123   -2689.1313   -495.81661    12194.726 
   14500    290.58924     238.6742   -3122.4733   -2690.2438   -479.82849    12199.714 
   14550    281.83277    238.38351   -3112.7836   -2693.5787     -272.359    12204.305 
   14600    295.79886    238.86847   -3128.9489   -2688.9705    -726.5201    12208.542 
   14650    281.65464    238.31271   -3110.4237   -2691.4838   -275.72042    12212.255 
   14700    281.30051    238.25924   -3108.6414   -2690.2282   -198.32845    12215.626 
   14750    282.92179    238.26522   -3108.8408   -2688.0161   -207.98742    12218.728 
   14800    280.77368    238.20371   -3106.7903   -2689.1607   -137.67984    12221.547 
   14850    280.93896    238.08871    -3102.957   -2685.0816   -106.45649    12224.128 
   14900    294.60814    238.49346   -3116.4485   -2678.2413   -467.55884    12226.447 
   14950     285.5878     238.1179   -3103.9301   -2679.1399    -244.5949    12228.383 
   15000    287.30907    238.22626   -3107.5421   -2680.1916   -382.29949    12229.992 
   15050    298.08863    238.62751    -3120.917   -2677.5328   -735.84025      12231.2 
   15100     297.8288    238.58689    -3119.563   -2676.5653   -706.77021    12231.838 
   15150    282.77623    237.95822   -3098.6075   -2677.9993   -159.64689    12231.951 
   15200    295.23881    238.36742   -3112.2473    -2673.102    -422.0936    12231.742 
   15250    280.27869    237.76301   -3092.1004   -2675.2071    142.96164    12231.159 
   15300    280.54438    237.72271   -3090.7569   -2673.4684    155.72641    12230.442 
   15350    289.58663    237.95498   -3098.4993   -2667.7611   -153.43153    12229.621 
   15400    288.35518    237.84021   -3094.6737   -2665.7672   -61.133369    12228.546 
   15450    293.40354    238.03857   -3101.2858   -2664.8703   -172.34958    12227.248 
   15500    292.96641    237.98428   -3099.4759   -2663.7106   -35.251398    12225.677 
   15550    297.13708     238.0628   -3102.0933   -2660.1244   -42.742887    12223.886 
   15600    305.06754    238.31523   -3110.5076   -2656.7428   -156.54411     12221.87 
   15650    297.54859    238.06253   -3102.0843   -2659.5033     237.9847    12219.604 
   15700    295.29429    237.89962    -3096.654   -2657.4261     339.7772    12217.273 
   15750    298.27012    238.00173   -3100.0576   -2656.4034    214.80235    12214.924 
   15800     299.5203    237.99255   -3099.7517   -2654.2379    269.96592    12212.511 
   15850    299.22775    237.94587   -3098.1957    -2653.117    307.83928    12210.051 
   15900    309.32786     238.3476   -3111.5866   -2651.4849    28.547515    12207.527 
   15950    290.55819    237.63863   -3087.9542   -2655.7709    694.79748    12204.889 
   16000    294.57898    237.81554   -3093.8512   -2655.6873     605.0476     12202.39 
   16050    307.56368    243.25192   -3108.3973   -2650.9197    167.74827    12200.011 
   16100    293.10029    242.73331   -3091.1102   -2655.1457    616.11294    12197.599 
   16150    302.89832    242.99741   -3099.9138   -2649.3755    354.85264    12195.285 
   16200     303.1461    243.02782   -3100.9274   -2650.0206    308.82626    12193.007 
   16250    307.27103    243.16409   -3105.4695   -2648.4272    265.48137    12190.706 
   16300    296.84688    242.65772   -3088.5907   -2647.0534    743.54579    12188.398 
   16350    296.77058    242.78202    -3092.734   -2651.3102    780.24234    12186.287 
   16400    301.94676    242.94604   -3098.2012   -2649.0783    659.31893    12184.414 
   16450    301.18235    242.88028   -3096.0094   -2648.0234    766.20712    12182.723 
   16500    289.20149    242.39449   -3079.8163    -2649.651    1226.7801    12181.298 
   16550    296.91185    242.76831   -3092.2771   -2650.6432    896.32344    12180.324 
   16600    309.38526    243.06959   -3102.3195   -2642.1324    579.87019     12179.65 
   16650    304.87266    242.82962   -3094.3206   -2640.8456    808.50164    12179.139 
   16700    293.59666    242.45343   -3081.7809   -2645.0781     1140.828    12178.907 
   16750       295.94    242.52938   -3084.3125   -2644.1242    1053.0882    12179.103 
   16800    295.39997    242.56751   -3085.5837   -2646.1986    1021.1194    12179.711 
   16850    299.25037    242.64115   -3088.0383   -2642.9261      805.168    12180.706 
   16900    308.90613    242.97901   -3099.3002   -2639.8258    460.36952    12181.946 
   16950     300.0507    242.57544   -3085.8479   -2639.5452    866.07232    12183.303 
   17000     296.1329    242.44563   -3081.5211   -2641.0458    986.25213    12184.965 
   17050    308.32959    237.87995   -3095.9984   -2637.3815    552.55907    12186.958 
   17100     314.2346    238.06528   -3102.1761    -2634.776    304.90752    12189.101 
   17150    324.02784    238.35868   -3111.9561   -2629.9892    53.190463    12191.225 
   17200    302.61955    237.63433   -3087.8111   -2637.6875     762.7606    12193.242 
   17250    301.46725    237.55027    -3085.009   -2636.5993    821.79196    12195.456 
   17300    316.56906    238.12391   -3104.1302   -2633.2577    303.49287    12197.913 
   17350    316.23356    238.12196   -3104.0653   -2633.6918    285.72651    12200.379 
   17400    311.13336    237.97802   -3099.2673     -2636.48    415.77657    12202.829 
   17450    312.76861    237.98768   -3099.5892   -2634.3696    308.73342    12205.333 
   17500    313.75294    237.98424   -3099.4747    -2632.791    229.95708    12207.833 
   17550    309.79271    237.85196   -3095.0654   -2634.2723    453.70166     12210.28 
   17600    293.89738    237.31561   -3077.1872   -2640.0371     982.7253     12212.84 
   17650    304.59017    237.74604   -3091.5348     -2638.48    502.31467    12215.721 
   17700    312.02648    237.90038   -3096.6794   -2632.5636    156.20798     12218.72 
   17750    299.17995    237.45787   -3081.9291   -2636.9216    540.63105    12221.668 
   17800    279.66108    236.86408   -3062.1359   -2646.1613    1129.4925    12224.766 
   17850    309.65316    237.90901   -3096.9672   -2636.3816    169.70424    12228.228 
   17900    312.66508    237.92313   -3097.4378   -2632.3721    14.894666     12231.67 
   17950    297.39459    237.39201   -3079.7337   -2637.3818    417.39181     12234.98 
   18000     314.8117    237.97745   -3099.2483   -2630.9898   -161.86814    12238.297 
   18050    314.33925    232.96869   -3098.9563   -2631.4005   -182.57934    12241.388 
   18100     307.6991    232.76158   -3092.0528   -2634.3737    34.651827    12244.186 
   18150    310.26627    232.89979   -3096.6597   -2635.1621   -39.066436    12246.794 
   18200    300.49076    232.62101    -3087.367   -2640.4098    174.86084     12249.22 
   18250    302.90763    232.73842   -3091.2805   -2640.7284 -0.027006586    12251.516 
   18300    307.81981    232.98386   -3099.4619   -2641.6032   -260.50943    12253.628 
   18350     302.8771    232.73764   -3091.2547   -2640.7479   -12.480288    12255.431 
   18400    288.39745    232.35236    -3078.412   -2649.4427    437.66031    12257.051 
   18450    283.53676     232.2125     -3073.75   -2652.0106    491.99921    12258.723 
   18500    302.50673    232.89708   -3096.5694   -2646.6135   -213.81172    12260.435 
   18550    306.10137    233.04919   -3101.6396    -2646.337   -393.83373    12261.879 
   18600    288.64078    232.43926   -3081.3085   -2651.9772     117.3746    12262.955 
   18650    302.66912    232.94339   -3098.1131   -2647.9158   -455.20439    12263.841 
   18700    316.02368    233.43472   -3114.4906   -2644.4293   -930.17231     12264.29 
   18750    307.06733    233.12228   -3104.0759   -2647.3366    -566.8743    12264.047 
   18800    289.72596    232.69481   -3089.8271   -2658.8817   -74.262636    12263.298 
   18850    293.70195     232.9158   -3097.1934    -2660.334   -276.99126    12262.261 
   18900    290.70921    232.78182   -3092.7273   -2660.3194   -210.22883    12260.887 
   18950    301.96598    233.12436   -3104.1454   -2654.9938   -518.54764    12259.152 
   19000     293.6441    232.97967   -3099.3223    -2662.549   -381.23986    12256.943 
   19050    295.51843    233.13321   -3104.4403    -2664.879   -481.44137    12254.293 
   19100    289.33403    232.95667   -3098.5556   -2668.1931   -297.15059    12251.173 
   19150    282.66571    232.80754   -3093.5846   -2673.1407   -147.58958    12247.669 
   19200    293.55346    233.22985   -3107.6615    -2671.023   -455.87111    12243.842 
   19250    295.74881     233.3319   -3111.0634   -2671.1595   -493.90917    12239.554 
   19300    291.00077    233.22358   -3107.4528   -2674.6112   -313.48997    12234.765 
   19350    280.15991    232.90769   -3096.9231   -2680.2065   -20.226955    12229.579 
   19400    289.63341    233.21002   -3107.0008    -2676.193   -323.31164    12224.108 
   19450    301.32526     233.6613   -3122.0432   -2673.8447   -678.87225    12218.212 
   19500    291.18838     233.3976   -3113.2534   -2680.1328   -323.93561    12211.719 
   19550     286.8174    233.25024   -3108.3414   -2681.7222    -90.35717     12204.79 
   19600    291.63946    233.57321   -3119.1071   -2685.3155   -266.55571     12197.55 
   19650    308.67496     234.2478   -3141.5932   -2682.4626    -705.2082    12189.865 
   19700     293.5147    233.72255   -3124.0849    -2687.504   -87.073026    12181.586 
   19750    283.31069    233.36875   -3112.2917   -2690.8885    221.54915    12172.977 
   19800    297.67673    233.83107   -3127.7022   -2684.9306     -187.961    12164.173 
   19850    292.99506    233.72913   -3124.3043   -2688.4964    90.647239    12155.033 
   19900    289.21033    233.65126   -3121.7086   -2691.5302    331.56246    12145.654 
   19950    277.87014     233.2194   -3107.3132   -2694.0025     688.6522    12136.198 
   20000     285.1931    233.49008    -3116.336   -2692.1329    470.54532    12126.822 
   20050    299.95859    239.04291   -3134.7636    -2688.598    97.629461    12117.414 
   20100    286.91673    238.64171   -3121.3904   -2694.6235    544.57878    12107.851 
   20150    299.84026    239.12181   -3137.3936    -2691.404    237.86674    12098.272 
   20200     287.3704    238.66285   -3122.0952   -2694.6535    743.59097    12088.613 
   20250     273.3742    238.24373   -3108.1242   -2701.5008    1290.5924    12079.094 
   20300    294.72069    238.94841   -3131.6136   -2693.2389    760.24767     12069.96 
   20350    303.29576    239.24858   -3141.6195     -2690.49    540.07938    12061.011 
   20400    297.14687    239.15572   -3138.5241   -2696.5407    778.01118    12052.098 
   20450    299.62156    239.19075   -3139.6917   -2694.0273    817.83022    12043.325 
   20500     303.5776    239.36566   -3145.5221   -2693.9734    824.30552    12034.733 
   20550    290.49782    238.86277   -3128.7589   -2696.6655    1401.9493     12026.36 
   20600     295.1262    238.92786   -3130.9288   -2691.9509    1387.6773    12018.454 
   20650    298.33591    239.10403   -3136.8011   -2693.0491    1285.6932    12011.054 
   20700    305.73926    239.45391   -3148.4636   -2693.6997    1086.8347    12004.075 
   20750    303.39819    239.37082   -3145.6941   -2694.4122    1219.1949     11997.45 
   20800    303.37978    239.38715   -3146.2382   -2694.9838    1413.6843    11991.229 
   20850    282.99729    238.72125   -3124.0417   -2703.1047    2152.8769    11985.575 
   20900    303.62472    239.44132   -3148.0438   -2696.4251    1531.8214    11980.744 
   20950    288.65062    238.88745   -3129.5818   -2700.2359    2003.6789    11976.589 
   21000    295.62917      239.204   -3140.1333   -2700.4073    1807.9819    11973.248 
   21050    293.33564    239.10761   -3136.9203   -2700.6058    1896.0186     11970.67 
   21100    303.82207    239.34754    -3144.918   -2693.0056    1627.9649    11968.854 
   21150    308.57967    239.51505   -3150.5015   -2691.5126     1482.886    11967.708 
   21200    288.80371    238.83838   -3127.9461   -2698.3725    2096.4642    11967.198 
   21250    296.48619    239.14183   -3138.0611   -2697.0604    1843.2008    11967.557 
   21300    299.77629    239.26879    -3142.293   -2696.3985     1700.938    11968.736 
   21350     309.2243    239.55643    -3151.881   -2691.9333     1361.407    11970.638 
   21400    299.39274    239.12733   -3137.5775   -2692.2535    1737.8495    11973.135 
   21450    301.02527    239.21025   -3140.3416   -2692.5894    1688.2793    11976.372 
   21500    291.96516    238.92039   -3130.6797   -2696.4036    1896.5942    11980.385 
   21550    295.56002    239.03357   -3134.4522   -2694.8291    1737.0909    11985.246 
   21600    305.64653    239.44261   -3148.0869   -2693.4609    1268.7066     11990.89 
   21650    309.41096    239.50931   -3150.3105   -2690.0851    1145.2624    11997.084 
   21700    299.17828    239.17373   -3139.1243   -2694.1193    1429.6784    12003.801 
   21750    296.44197    239.00354   -3133.4513   -2692.5163    1526.8218    12011.158 
   21800     289.2043    238.74012   -3124.6707   -2694.5012    1592.5367     12019.22 
   21850    299.25252    239.11309    -3137.103   -2691.9876    1088.3882    12028.005 
   21900    312.13914    239.41868   -3147.2892   -2683.0059    663.07443    12037.302 
   21950    304.75619    239.20439   -3140.1464   -2686.8447    831.41359    12046.891 
   22000    294.41466    238.84819    -3128.273   -2690.3535    1062.9663    12056.839 
   22050    293.25819    238.74255   -3124.7517   -2688.5524    994.14964    12067.273 
   22100    295.97398    238.87065   -3129.0216   -2688.7827    833.72437    12078.169 
   22150    292.20851    238.73052   -3124.3505   -2689.7125    853.40825    12089.459 
   22200    291.79621    238.64414   -3121.4714   -2687.4467    728.68336    12101.144 
   22250    286.56079    238.47659   -3115.8863   -2689.6488    712.03983    12113.182 
   22300     295.5049    238.77144   -3125.7148   -2686.1736     336.2538    12125.518 
   22350    296.67986    238.85085   -3128.3618    -2687.073    208.81774    12138.001 
   22400    291.02845    238.56892   -3118.9641   -2686.0813    291.73403    12150.571 
   22450    303.70764    238.90149   -3130.0496   -2678.3075   -247.18803    12163.208 
   22500    302.96027    238.81132   -3127.0439   -2676.4135   -230.74056    12175.677 
   22550    291.83868    238.33425   -3111.1416   -2677.0536    153.90376    12187.979 
   22600    300.79805    238.63682   -3121.2275   -2673.8132   -264.00969    12200.248 
   22650     292.3773    238.21145   -3107.0485   -2672.1594   -120.98426    12212.336 
   22700    292.12568    238.12358   -3104.1192   -2669.6044   -176.11331    12224.275 
   22750    302.96611    238.35125   -3111.7084   -2661.0693   -454.67993    12236.037 
   22800    290.98539    237.81932   -3093.9772   -2661.1585     -52.8115    12247.515 
   22850    295.06396    237.91841   -3097.2802   -2658.3949   -256.36573    12258.838 
   22900    294.19034    237.78085   -3092.6951   -2655.1093   -323.83356     12269.94 
   22950    291.89532    237.58069    -3086.023   -2651.8508   -247.80784    12280.789 
   23000    303.30557    237.90372   -3096.7907   -2645.6466   -537.50563    12291.376 
   23050    281.27297    242.04024   -3068.0079   -2649.6357    52.580982    12301.641 
   23100    303.91573    242.74318   -3091.4394   -2639.3878   -733.36833    12311.742 
   23150      301.783    242.62668    -3087.556   -2638.6766   -756.88371    12321.396 
   23200    296.26372    242.36037    -3078.679   -2638.0092   -533.87007    12330.542 
   23250    295.14023    242.26031   -3075.3436   -2636.3449    -459.9178    12339.272 
   23300     294.2237    242.16074   -3072.0247   -2634.3893   -430.07584    12347.646 
   23350    292.53233    242.08068    -3069.356   -2634.2363   -428.98069    12355.672 
   23400    293.60353    242.02456   -3067.4853   -2630.7723   -487.73748    12363.351 
   23450    299.52893    242.08168   -3069.3894   -2623.8628   -699.03403    12370.636 
   23500    288.55693    241.59741   -3053.2471   -2624.0405    -368.5126     12377.44 
   23550    291.33866    241.70538   -3056.8458   -2623.5017   -486.71708    12383.878 
   23600    293.32904    241.73332   -3057.7775   -2621.4728   -581.93294     12389.91 
   23650    288.67739    241.62336   -3054.1119   -2624.7262   -542.15674    12395.485 
   23700    287.53946    241.54141   -3051.3803   -2623.6872   -573.67157    12400.623 
   23750    295.59141    241.82477   -3060.8258    -2621.156   -892.90032    12405.284 
   23800    301.39689    241.97553   -3065.8512   -2617.5461   -1106.3527    12409.296 
   23850    301.50614    241.93173    -3064.391   -2615.9234   -991.03953    12412.547 
   23900    296.21922    241.68787   -3056.2623   -2615.6587   -710.37086    12415.094 
   23950    293.75671     241.5712   -3052.3733   -2615.4324   -647.85949    12417.069 
   24000    303.50704    241.85398   -3061.7993   -2610.3556   -980.54829    12418.489 
   24050    301.72799    241.73127   -3057.7089   -2608.9114   -916.53057    12419.203 
   24100    299.94945    241.63025   -3054.3417   -2608.1896   -757.47823     12419.21 
   24150    289.00789    241.24106   -3041.3687   -2611.4914   -375.49269    12418.629 
   24200    300.42858    241.75303   -3058.4344   -2611.5697   -788.39624    12417.603 
   24250    292.48239    241.32087   -3044.0291   -2608.9837   -520.78117    12415.996 
   24300    297.03784    241.49167   -3049.7224   -2607.9011   -607.39448     12413.88 
   24350    304.58713    241.72634   -3057.5448   -2604.4945   -780.33471    12411.221 
   24400    293.36524    241.25217   -3041.7389   -2605.3804     -330.449    12407.957 
   24450    292.60831    241.24857   -3041.6189   -2606.3863   -124.16192    12404.277 
   24500     286.8934    240.99488   -3033.1626   -2606.4304    174.85993    12400.341 
   24550    297.35818     241.3119   -3043.7301   -2601.4324   -64.819223    12396.263 
   24600    292.42072    241.07945   -3035.9817    -2601.028    151.56361    12391.974 
   24650    300.98691    241.26766   -3042.2553     -2594.56   -12.812871    12387.542 
   24700    306.54019    241.58856   -3052.9518   -2596.9965   -167.25224    12382.886 
   24750    299.00069    241.27896   -3042.6321   -2597.8912    109.75975    12377.941 
   24800    306.94512    241.49827   -3049.9425   -2593.3849   -57.890082    12372.819 
   24850    311.72232    241.64833   -3054.9442   -2591.2809   -147.96117    12367.457 
   24900    322.37859    241.99684   -3066.5612   -2587.0475   -414.23241    12361.767 
   24950    321.06906    241.89519   -3063.1728    -2585.607   -357.22191    12355.648 
   25000    314.47237    241.75391   -3058.4635   -2590.7097   -117.65369    12349.092 
   25050    311.32969    246.56703   -3052.2343    -2589.155    204.38309     12342.24 
   25100    308.86999    246.49754   -3049.9181   -2590.4974    342.69996    12335.291 
   25150    316.70161    246.84309   -3061.4364   -2590.3668     177.2427    12328.294 
   25200     303.2416    246.31482   -3043.8272   -2592.7783    700.72151    12321.242 
   25250    314.45942    246.71632   -3057.2108   -2589.4762    438.60465    12314.305 
   25300    318.45012    246.82414   -3060.8047   -2587.1343    398.95167    12307.413 
   25350    320.51216    246.90425    -3063.475   -2586.7375    407.56918    12300.519 
   25400     307.5122    246.50937   -3050.3124   -2592.9113    879.17696    12293.666 
   25450    305.08656    246.44045   -3048.0151    -2594.222     1018.468    12287.069 
   25500    299.99537     246.2622   -3042.0732   -2595.8528    1255.6584     12280.84 
   25550    303.36244    246.37057   -3045.6858   -2594.4572    1247.4529    12275.078 
   25600    314.91516    246.79244   -3059.7481   -2591.3357    989.32303    12269.786 
   25650    319.58445    246.93003   -3064.3343   -2588.9767    900.53889    12264.857 
   25700    318.27432    246.89933    -3063.311   -2589.9021    946.87767    12260.227 
   25750    317.78279    246.91447   -3063.8157   -2591.1379    972.21957    12255.915 
   25800     316.5241    246.87401   -3062.4671   -2591.6615    1034.0317    12251.931 
   25850    316.32093    246.86344   -3062.1145   -2591.6111    1034.8001    12248.324 
   25900     312.2134    246.72172   -3057.3906   -2592.9969    1169.7362    12245.103 
   25950    313.66511    246.86133   -3062.0443   -2595.4912    1126.5708    12242.319 
   26000     328.0034    247.35375   -3078.4585   -2590.5783    699.90424    12239.948 
   26050     310.3366    241.84118   -3061.3728   -2599.7706    1260.9414    12237.828 
   26100    320.10373    242.25144    -3075.048    -2598.918    979.77657    12236.164 
   26150    322.72688    242.37995   -3079.3318      -2599.3    809.60739    12234.852 
   26200      301.404    241.76278   -3058.7594   -2610.4438    1395.6418    12233.822 
   26250    318.58588    242.38764   -3079.5881   -2605.7158    877.56807    12233.296 
   26300    308.46373    242.02913   -3067.6377   -2608.8213     1123.995    12233.128 
   26350    306.86251    242.01309    -3067.103   -2610.6682    1110.4574    12233.376 
   26400    317.02056    242.42689   -3080.8962   -2609.3521    682.51789     12234.04 
   26450    326.32844    242.87069   -3095.6898    -2610.301    250.49221    12234.882 
   26500    319.49356     242.7698   -3092.3266   -2617.1041    363.42303    12235.727 
   26550    308.50992    242.23216   -3074.4052   -2615.5201     715.3571    12236.616 
   26600    305.16555    242.17215    -3072.405   -2618.4944    759.52772    12237.705 
   26650    307.46196    242.38106   -3079.3688   -2622.0424    563.57126    12239.038 
   26700    307.60205    242.40431   -3080.1438   -2622.6091    525.22916    12240.513 
   26750    312.53078    242.66137   -3088.7124   -2623.8466    336.23918    12242.092 
   26800    308.25324    242.51788   -3083.9295   -2625.4261     422.3658    12243.712 
   26850     301.5072    242.36821   -3078.9405   -2630.4714    489.72448    12245.412 
   26900    304.45807    242.48601   -3082.8672   -2630.0088    307.72512    12247.214 
   26950    308.51244    242.62471   -3087.4904   -2628.6015    115.64803     12249.03 
   27000    314.32919    242.88582   -3096.1941   -2628.6533   -134.73426    12250.729 
   27050    296.05308     237.3463   -3078.2101   -2637.8536    325.95164    12252.219 
   27100    293.42532    237.23349   -3074.4496   -2638.0017    417.77082    12253.678 
   27150    292.59173    237.33724   -3077.9081   -2642.7001      298.071    12255.196 
   27200    304.59231    237.79707   -3093.2356   -2640.1777   -198.12682    12256.685 
   27250    297.36196    237.58367   -3086.1222   -2643.8188       95.453    12257.923 
   27300    302.57637    237.73631   -3091.2104    -2641.151    -22.68029    12259.019 
   27350    316.04882    238.18191   -3106.0637   -2635.9651   -556.66855    12259.893 
   27400    308.17485    237.92367   -3097.4557   -2639.0689    -408.9813    12260.312 
   27450    300.06283    237.71291   -3090.4302   -2644.1095   -141.59691    12260.306 
   27500       288.92    237.33315   -3077.7718   -2648.0252    218.34615    12260.044 
   27550    299.68699     237.6861   -3089.5365   -2643.7749   -136.15584    12259.673 
   27600    300.53011    237.80955   -3093.6516   -2646.6359   -322.91878     12259.05 
   27650    305.14695    237.92462   -3097.4874   -2643.6045   -517.08678    12258.042 
   27700    307.59389    238.04623   -3101.5409   -2644.0183   -547.51532    12256.548 
   27750    301.18597     237.8712   -3095.7065   -2647.7152   -158.85307    12254.561 
   27800    270.18943    236.75806   -3058.6019   -2656.7156    746.86593    12252.325 
   27850    295.52294    237.66054   -3088.6846   -2649.1166   -175.84827    12250.182 
   27900    307.04811    238.03727   -3101.2423   -2644.5315   -486.15112    12247.786 
   27950    306.89405    238.01437   -3100.4788   -2643.9972   -384.69323    12244.929 
   28000    308.48528    238.23976   -3107.9921   -2649.1436   -451.85836    12241.624 
   28050    293.43959    232.66284   -3088.7614   -2652.2922    93.356509    12237.889 
   28100    283.72729    232.30008   -3076.6693   -2654.6465    480.67146    12233.959 
   28150    298.44357    232.89443   -3096.4809   -2652.5687   -73.223304    12230.017 
   28200    301.58753     232.9712   -3099.0401   -2650.4515   -207.38392    12225.825 
   28250    302.31226    233.01518    -3100.506   -2650.8395   -125.35245    12221.292 
   28300    309.25883    233.20875   -3106.9584   -2646.9593   -214.58302    12216.445 
   28350    297.60385    232.88433   -3096.1444   -2653.4812    112.43248    12211.261 
   28400    308.20259    233.30399   -3110.1329   -2651.7049   -170.03668    12205.848 
   28450    307.37522    233.29788   -3109.9292   -2652.7319   -10.227645    12200.117 
   28500    297.70232    232.95657   -3098.5522   -2655.7425    365.25751    12194.165 
   28550    307.57834    233.25904   -3108.6346   -2651.1352    121.44355    12188.108 
   28600    303.83024    233.21201    -3107.067   -2655.1426    238.16403    12181.882 
   28650    308.64026    233.35268   -3111.7559   -2652.6769    136.16507    12175.533 
   28700    311.62234    233.52282   -3117.4274   -2653.9128    91.796652        12169 
   28750    307.13586    233.37595   -3112.5316   -2655.6902    279.19496    12162.284 
   28800     313.2175     233.6104   -3120.3467   -2654.4594     125.1157    12155.431 
   28850    307.45722    233.46998   -3115.6662   -2658.3468    336.26448    12148.432 
   28900    307.14363     233.5965   -3119.8832   -2663.0303    403.65951    12141.352 
   28950    296.96984    233.29308   -3109.7695   -2668.0494    750.23336    12134.244 
   29000    290.52935    233.12226   -3104.0754    -2671.935    967.66777    12127.287 
   29050    301.20923    238.44595    -3114.865   -2666.8391    711.66052    12120.593 
   29100    309.68833    238.80514   -3126.8379      -2666.2    406.34903    12114.066 
   29150     303.6215    238.60293   -3120.0977   -2668.4837    658.35144    12107.555 
   29200    288.13303    238.05322   -3101.7739   -2673.1979    1250.8892    12101.196 
   29250    307.84784    238.83426   -3127.8085   -2669.9082    695.13196    12095.211 
   29300    300.80238    238.56194   -3118.7314   -2671.3107    919.80213    12089.426 
   29350    305.35988    238.74068   -3124.6893   -2670.4897    760.24637     12083.89 
   29400    310.50778    238.99109   -3133.0363   -2671.1795    616.99505    12078.551 
   29450    299.05167    238.67707    -3122.569   -2677.7523     1062.661    12073.328 
   29500     295.0469    238.50313   -3116.7709    -2677.911    1262.4419    12068.445 
   29550    313.89757    239.18239    -3139.413   -2672.5142     696.5139    12063.988 
   29600    300.90978    238.73379   -3124.4597   -2676.8792    1191.3366    12059.733 
   29650    310.96183    239.13441   -3137.8135   -2675.2814    915.13044    12055.852 
   29700    306.11272    239.04909   -3134.9696   -2679.6501    966.24136    12052.277 
   29750    293.94874     238.6431   -3121.4367   -2684.2102    1414.8153    12049.025 
   29800    297.86957     238.8313   -3127.7101   -2684.6516    1281.6012    12046.302 
   29850    307.74404    239.25607   -3141.8691   -2684.1232    889.56574    12044.046 
   29900    301.95426    239.02728   -3134.2426   -2685.1085    1025.8102    12042.081 
   29950    286.56905    238.57372   -3119.1239   -2692.8741    1385.2781    12040.472 
   30000    297.08006    239.01422   -3133.8072   -2691.9232    931.97709    12039.366 
   30050    300.96486    234.21224   -3140.4079   -2692.7455    826.06291    12038.585 
   30100    292.79717    233.88657   -3129.5524   -2694.0388     1170.521    12038.072 
   30150    309.67482    234.48436   -3149.4785   -2688.8607    632.19678    12037.916 
   30200    316.13219    234.79266   -3159.7552   -2689.5325    266.42222    12037.909 
   30250    296.74682    234.09403   -3136.4676   -2695.0792    808.85709     12037.89 
   30300    304.08614    234.36065   -3145.3549   -2693.0498     589.2818    12038.044 
   30350    291.09772    233.93783    -3131.261   -2698.2752    955.69926    12038.373 
   30400    299.60799    234.35611   -3145.2035   -2699.5594    731.08004    12038.972 
   30450     277.5808    233.66963    -3122.321   -2709.4406    1357.0705    12039.833 
   30500    292.94178     234.2322   -3141.0735   -2705.3448     837.6437    12041.179 
   30550    309.43588    234.74833   -3158.2776   -2698.0152    307.07729    12042.798 
   30600    293.38979    234.19628   -3139.8761    -2703.481    751.17043    12044.442 
   30650     298.2221    234.49628    -3149.876   -2706.2933    509.50238    12046.266 
   30700    292.46682     234.3588   -3145.2932    -2710.271    675.32146    12048.199 
   30750    295.55432    234.39307   -3146.4355   -2706.8209    599.46846    12050.299 
   30800    290.75975    234.26925   -3142.3083   -2709.8253    646.00068    12052.553 
   30850    284.72956    234.04474   -3134.8247   -2711.3111    778.25486    12054.977 
   30900    292.99844    234.31556   -3143.8521   -2708.0392    563.07155    12057.628 
   30950    280.83073    233.92778   -3130.9261   -2713.2116    894.74045     12060.45 
   31000    301.42713    234.63098   -3154.3658   -2706.0158    210.76608    12063.526 
   31050    289.73548    229.18476   -3139.4921   -2708.5326    495.39938    12066.608 
   31100    288.49736    229.03062   -3134.3542   -2705.2362     559.0534    12069.761 
   31150    307.95923    229.75418   -3158.4725   -2700.4065   -154.92395    12072.985 
   31200    300.02665    229.49971   -3149.9904   -2703.7235   -36.106715    12075.979 
   31250    303.25488    229.69397   -3156.4657    -2705.397   -183.91055    12078.746 
   31300    291.12432    229.33615   -3144.5385   -2711.5131    183.44482    12081.263 
   31350    289.99594    229.23081    -3141.027     -2709.68    247.64142    12083.664 
   31400    293.75419    229.30624   -3143.5414   -2706.6043    108.66093    12085.996 
   31450     293.8967    229.34021   -3144.6736   -2707.5245   -47.532022    12088.201 
   31500    295.58499    229.30324   -3143.4413   -2703.7811   -152.32793    12090.204 
   31550    292.97493    229.27338    -3142.446    -2706.668     114.1282    12091.925 
   31600    281.56667    228.89579   -3129.8596   -2711.0506    526.37443     12093.54 
   31650    305.25581     229.7442     -3158.14   -2704.0952    -198.7059    12095.164 
   31700    286.64132    229.10675   -3136.8916   -2710.5344    377.24172    12096.565 
   31750      294.493    229.34333   -3144.7776   -2706.7416    158.42572    12097.937 
   31800    296.71807    229.31652   -3143.8841   -2702.5385     135.2198    12099.211 
   31850    291.64413    229.16325   -3138.7749   -2704.9764    337.01033    12100.359 
   31900    288.27958    229.10713   -3136.9045   -2708.1104    430.76291    12101.483 
   31950    286.94231    229.00461   -3133.4869   -2706.6819    498.81729    12102.641 
   32000    289.13765    229.08042   -3136.0139   -2705.9435    388.99722    12103.856 
   32050    287.65288    223.99521   -3133.1735   -2705.3117    419.78593    12105.096 
   32100    301.25634    224.47912   -3149.3038   -2701.2079   -96.102466    12106.306 
   32150    303.82995    224.52863   -3150.9543   -2699.0303   -301.84695     12107.26 
   32200    293.68471    224.20632   -3140.2108    -2703.377    9.0092314    12107.856 
   32250    299.91699    224.39526   -3146.5086   -2700.4048   -126.41997    12108.208 
   32300    298.03949    224.20742   -3140.2472    -2696.936   -74.966004    12108.286 
   32350    299.63527    224.35698   -3145.2325   -2699.5478   -180.42458    12108.092 
   32400    294.29921    224.16903   -3138.9677   -2701.2199   -4.2787119    12107.604 
   32450    285.81696    223.89615   -3129.8715   -2704.7405    244.74189    12106.888 
   32500     293.8224    224.14356   -3138.1186     -2701.08     36.54219    12106.062 
   32550    287.10564      223.809   -3126.9668   -2699.9189    282.63124    12105.053 
   32600    292.02894    224.01514   -3133.8382   -2699.4673    197.55197    12103.935 
   32650    295.82609    224.13142   -3137.7141   -2697.6952    102.74646     12102.71 
   32700    304.74168    224.44215   -3148.0717   -2694.7915   -193.50488    12101.298 
   32750    313.33825    224.69668   -3156.5561   -2690.4892   -390.89146    12099.547 
   32800    295.69704    223.94347    -3131.449    -2691.622    222.46573    12097.397 
   32850    299.33718    224.27142   -3142.3808   -2697.1394    140.32318    12095.074 
   32900    291.87297    224.03159   -3134.3865   -2700.2476    456.93684    12092.624 
   32950    297.72659    224.11278   -3137.0928    -2694.247    362.23192    12090.151 
   33000    292.63176    223.93929   -3131.3098   -2696.0422    520.76871    12087.654 
   33050    314.39353    224.70906   -3156.9685    -2689.332   -57.306616     12085.13 
   33100    299.64682    224.25387   -3141.7957   -2696.0937    452.25939    12082.408 
   33150    304.48891    224.30716   -3143.5718   -2690.6677    408.82359    12079.645 
   33200    311.91747    224.53511   -3151.1704   -2687.2168    235.74674    12076.836 
   33250    297.41131    224.00474   -3133.4913   -2691.1145    663.42975     12073.95 
   33300    310.18273    224.39685   -3146.5618   -2685.1885    241.90943    12071.115 
   33350    309.05373    224.40557   -3146.8522   -2687.1582    242.49698    12068.187 
   33400    299.11869    224.12595   -3137.5318   -2692.6154     603.6539    12065.157 
   33450    282.17662     223.6289   -3120.9632   -2701.2469    1229.3311    12062.199 
   33500     290.9913    223.86047   -3128.6824   -2695.8549    1032.5477    12059.626 
   33550    312.69434    224.53748   -3151.2494   -2686.1403    391.02963    12057.341 
   33600    299.63342    224.11169   -3137.0564   -2691.3744    756.24941    12055.073 
   33650     302.1032    224.23205   -3141.0683   -2691.7127    697.77973    12052.935 
   33700    298.89725    224.15922   -3138.6406   -2694.0536    792.95849    12050.944 
   33750    311.37511    224.50353   -3150.1176   -2686.9707    479.47244    12049.116 
   33800    315.48481    224.62193   -3154.0643   -2684.8045    392.47353    12047.306 
   33850    308.69672    224.36301   -3145.4337   -2686.2708    622.48996    12045.476 
   33900    293.04186    223.86894   -3128.9648   -2693.0872    1083.2784     12043.75 
   33950    288.41177    223.76916   -3125.6386   -2696.6479    1221.8167    12042.359 
   34000    307.94554    224.42999   -3147.6662   -2689.6206    621.72094    12041.346 
   34050    299.82896    224.17372    -3139.124   -2693.1512    924.71479    12040.477 
   34100    302.06088    224.13658   -3137.8862   -2688.5935    1013.5417    12039.858 
   34150    299.22006    224.13563   -3137.8544   -2692.7873    1043.9139     12039.55 
   34200    316.59106    224.70728   -3156.9095   -2686.0043    470.08949    12039.523 
   34250    319.25847     224.7043   -3156.8102   -2681.9374    374.10332    12039.535 
   34300    291.83448    223.86531   -3128.8438   -2694.7621    1140.9687    12039.558 
   34350     296.9587    224.02858   -3134.2861   -2692.5826    985.68442    12039.909 
   34400    309.16683    224.48746   -3149.5821   -2689.7199    599.08149     12040.55 
   34450    300.99512    224.16137   -3138.7125    -2691.005    955.42269    12041.331 
   34500    299.22315    224.15999   -3138.6662   -2693.5944     1040.095    12042.387 
   34550    292.94736    223.98486   -3132.8285   -2697.0915    1124.1404    12043.804 
   34600    288.13978    223.80276   -3126.7586   -2698.1725    1290.2233    12045.616 
   34650    298.49463    224.11264   -3137.0881   -2693.0999    1000.7332    12047.891 
   34700    315.12368    224.72744   -3157.5812   -2688.8586    393.99757    12050.466 
   34750    295.87389    224.01267   -3133.7558   -2693.6658    939.02199    12053.103 
   34800    301.93569    224.24939   -3141.6463   -2692.5398    681.73777    12055.987 
   34850    314.94504     224.6797   -3155.9899    -2687.533    200.52871    12059.008 
   34900    302.21139    224.35624    -3145.208   -2695.6914    506.19573    12061.957 
   34950    296.71539    224.11872   -3137.2905   -2695.9489    739.84938    12064.967 
   35000    297.56968    224.14516    -3138.172   -2695.5596    736.76143    12068.159 
   35050    299.85155    229.22642   -3140.8807   -2694.8743    663.74021    12071.543 
   35100    301.04053    229.21327   -3140.4423   -2692.6673    671.05127    12075.084 
   35150    291.18982    228.98362   -3132.7872   -2699.6644    841.01041    12078.812 
   35200    302.42812    229.42264   -3147.4215   -2697.5825    345.03338    12082.762 
   35250    299.38145    229.20726   -3140.2421   -2694.9349    401.93615    12086.736 
   35300    292.50406    229.01335   -3133.7782   -2698.7006    476.91709    12090.743 
   35350    292.69174    229.15624   -3138.5415   -2703.1847    230.45311    12094.797 
   35400    289.40157    229.08307   -3136.1024   -2705.6395    240.87049    12098.802 
   35450    286.54293    229.00154   -3133.3847   -2707.1738    305.11033     12102.76 
   35500    285.04451    228.84436   -3128.1453   -2704.1632    375.57399      12106.7 
   35550    286.57518    228.97553   -3132.5175   -2706.2587    239.39692    12110.646 
   35600    289.79626    228.99422   -3133.1405   -2702.0906     70.57086    12114.548 
   35650    299.52466    229.28329   -3142.7765   -2697.2562   -228.68704    12118.278 
   35700    287.90259    229.03475   -3134.4916   -2706.2583    10.787037     12121.73 
   35750    293.62603    229.27489   -3142.4963   -2705.7498   -201.62831    12124.975 
   35800    287.70016    229.14555   -3138.1851   -2710.2529   -160.81898    12127.945 
   35850    286.02929    229.08185   -3136.0618   -2710.6149   -207.54184    12130.626 
   35900    288.70638     229.2166   -3140.5535   -2711.1246   -356.48374    12132.993 
   35950    276.98803    228.83147   -3127.7156   -2715.7169    -17.77589    12135.028 
   36000    288.61583    229.31082   -3143.6941   -2714.3999   -391.56978    12136.812 
   36050    294.82014    229.46292    -3148.764   -2710.2414   -659.55125    12138.199 
   36100    301.49497    229.78983   -3159.6611   -2711.2102    -901.4572    12139.017 
   36150     282.3721    229.19243   -3139.7477   -2719.7406   -303.90063    12139.199 
   36200    281.55965    229.12266   -3137.4221   -2718.6234   -252.21928    12138.989 
   36250    287.45989    229.37868    -3145.956   -2718.3812   -541.06979    12138.425 
   36300    282.05101    229.26705   -3142.2351   -2722.7056   -479.97614    12137.388 
   36350    281.39871    229.32721   -3144.2404   -2725.6811   -451.59845    12135.875 
   36400    274.88404    229.09351   -3136.4504   -2727.5812    -123.6928    12133.932 
   36450    281.43664    229.22327   -3140.7757     -2722.16   -199.31456    12131.688 
   36500    281.09731    229.23356   -3141.1187   -2723.0077   -294.94764    12129.139 
   36550    281.77485    229.26383   -3142.1276   -2723.0089   -400.30674    12126.229 
   36600    299.46234    229.84148   -3161.3827   -2715.9551   -849.32354     12122.86 
   36650    298.13329     229.7976     -3159.92   -2716.4693   -708.60245    12118.836 
   36700    281.04419    229.25016   -3141.6721   -2723.6402   -135.19276    12114.216 
   36750    283.23553     229.2902   -3143.0067   -2721.7153   -118.43374    12109.267 
   36800    285.16573     229.3897   -3146.3235   -2722.1611   -147.40239    12104.029 
   36850    285.19023    229.38986   -3146.3286   -2722.1297   -57.989827    12098.493 
   36900    277.47089    229.10287   -3136.7625   -2724.0455    358.83177    12092.718 
   36950    279.25377    229.10815   -3136.9383   -2721.5695    425.46988    12086.883 
   37000    291.51941    229.49898   -3149.9661    -2716.353    69.941249    12081.024 
   37050    290.52337    224.40098   -3146.6993   -2714.5678    168.96747    12074.991 
   37100    296.48109    224.65525    -3155.175   -2714.1819    3.9871269    12068.788 
   37150    286.16721    224.38408   -3146.1359   -2720.4839    343.15885    12062.372 
   37200    283.22241    224.22209   -3140.7363   -2719.4644    563.63752    12055.888 
   37250    306.46188    225.00634    -3166.878   -2711.0392    -32.61435    12049.407 
   37300    297.19019    224.72284   -3157.4279   -2715.3801    387.85149    12042.724 
   37350    299.31737    224.66542   -3155.5139    -2710.302    552.05721    12035.977 
   37400    303.44126    224.77592   -3159.1975   -2707.8516     494.2967    12029.272 
   37450    290.40414    224.24977    -3141.659   -2709.7049    1060.7628    12022.624 
   37500    291.08807    224.27069   -3142.3565    -2709.385    1209.4558    12016.267 
   37550    291.25326    224.22849   -3140.9498   -2707.7326    1298.9595    12010.308 
   37600    308.66653    224.80408   -3160.1359   -2701.0178    848.11916    12004.753 
   37650    303.87181    224.66546   -3155.5152   -2703.5289    1094.3721    11999.442 
   37700    285.48941    223.94893   -3131.6311   -2706.9872    1728.0485     11994.49 
   37750    291.68347    224.11413   -3137.1376   -2703.2806    1554.4216     11990.16 
   37800     305.7172    224.54365   -3151.4551   -2696.7239    1267.1278    11986.398 
   37850    306.04656    224.54775   -3151.5915   -2696.3705    1333.8835    11983.089 
   37900    321.90434    225.06065   -3168.6884   -2689.8801    899.71978    11980.205 
   37950    311.47808    224.70977   -3156.9923   -2693.6923    1254.1409    11977.584 
   38000    305.00365    224.44433   -3148.1442   -2694.4744     1571.011    11975.375 
   38050    308.22599    224.53577   -3151.1925   -2692.7297    1617.9066    11973.749 
   38100    303.25775    224.33646   -3144.5485   -2693.4756     1832.328    11972.743 
   38150    304.56774    224.35269   -3145.0898   -2692.0684    1773.3986    11972.452 
   38200    311.30119    224.46434   -3148.8114   -2685.7745     1574.631    11972.863 
   38250    320.47068    224.78603   -3159.5345   -2682.8586    1262.2234    11973.857 
   38300    325.46692    224.89327   -3163.1091   -2679.0018    1126.0677    11975.288 
   38350    311.20062    224.47587   -3149.1957   -2686.3083    1568.7704    11977.116 
   38400    308.59905    224.39687   -3146.5623   -2687.5446    1598.0406     11979.52 
   38450     314.4579    224.53485   -3151.1616   -2683.4293    1349.9017     11982.53 
   38500     315.0771     224.5638   -3152.1267   -2683.4734    1309.5578    11986.029 
   38550    300.66266    224.09003   -3136.3344   -2689.1215    1738.8124    11990.021 
   38600    301.15826    224.08002   -3136.0008   -2688.0507    1769.9469    11994.689 
   38650        301.9    224.11014   -3137.0046   -2687.9513    1601.8822    12000.076 
   38700    303.06549    224.07169   -3135.7229    -2684.936    1435.9517    12006.106 
   38750    312.38061    224.43166   -3147.7221   -2683.0796    1104.4939    12012.683 
   38800    303.15074    224.11937   -3137.3125   -2686.3987     1315.503    12019.668 
   38850    305.35175       224.04   -3134.6668   -2680.4792     1186.569    12027.121 
   38900    316.68965    224.46664    -3148.888   -2677.8362    707.19822    12034.991 
   38950    316.82898    224.43865   -3147.9549   -2676.6958    673.62309    12043.056 
   39000    302.06237    223.97611   -3132.5372   -2683.2423    1025.3265    12051.314 
   39050    309.42746    219.31764   -3143.9213   -2683.6714    712.91712    12059.877 
   39100     308.9927    219.35438   -3145.1461   -2685.5428    545.73659    12068.631 
   39150    320.40662    219.74288   -3158.0961   -2681.5155    62.716159    12077.431 
   39200    298.83593    218.92003   -3130.6678    -2686.172    661.99333    12086.118 
   39250    300.33053    218.88653   -3129.5511   -2682.8322    529.27155    12094.905 
   39300    305.04951    218.99289   -3133.0963   -2679.3583    177.34276    12103.757 
   39350    310.52662    219.23082   -3141.0273   -2679.1425   -96.467446    12112.495 
   39400    305.59572     219.0995   -3136.6499   -2682.0994    3.9008074     12120.98 
   39450    291.33056    218.61525   -3120.5084   -2687.1762    267.72732    12129.252 
   39500     315.5814     219.4557   -3148.5232   -2679.1198   -525.20531    12137.392 
   39550    300.31329    218.99452   -3133.1507   -2686.4574   -119.92006    12145.098 
   39600     295.9211    218.83091    -3127.697   -2687.5368   -91.526306    12152.487 
   39650    309.92533     219.3417   -3144.7233   -2683.7328   -641.90284    12159.581 
   39700    303.91027    219.12734   -3137.5781   -2685.5346   -467.00083    12166.153 
   39750    292.67695    218.73028   -3124.3427   -2689.0079   -140.86408     12172.24 
   39800    291.70978    218.82172   -3127.3908   -2693.4946    -313.9558     12177.99 
   39850    300.81552    219.13882   -3137.9606   -2690.5203   -730.88518     12183.35 
   39900    288.21717      218.711   -3123.6999   -2694.9987   -454.51055    12188.135 
   39950    298.88828    219.18776    -3139.592   -2695.0183   -918.82391    12192.394 
   40000    298.66888    219.17026   -3139.0086   -2694.7613   -969.13779    12195.951 
   40050     295.8643     224.0064   -3133.5465   -2693.4708   -848.25993    12198.768 
   40100    295.44617    224.05497   -3135.1658    -2695.712   -897.13772     12200.89 
   40150    294.77452    223.97541   -3132.5137    -2694.059   -932.02345    12202.286 
   40200    291.76812    223.96638   -3132.2128   -2698.2299   -917.36274    12202.953 
   40250     280.8258    223.72602   -3124.2008   -2706.4937   -688.02301    12202.913 
   40300    285.67514     223.8774   -3129.2465   -2704.3264   -815.16405    12202.255 
   40350    281.11464     223.8073   -3126.9099   -2708.7732      -599.51    12200.958 
   40400    267.38816     223.3401   -3111.3366    -2713.617   -136.19917    12199.138 
   40450    278.24758    223.79074    -3126.358   -2712.4858   -559.11522    12196.975 
   40500    277.69772    223.72475   -3124.1584   -2711.1041   -561.74427    12194.317 
   40550     282.7213    223.96988   -3132.3292   -2711.8027   -700.89941    12191.106 
   40600     291.4352     224.3353   -3144.5099   -2711.0221   -991.79702    12187.286 
   40650     284.1983    224.10712   -3136.9039   -2714.1805    -808.2559    12182.733 
   40700    280.45897    224.05342   -3135.1139   -2717.9524   -780.53369    12177.499 
   40750    280.55401    224.11864   -3137.2879   -2719.9851   -851.00144    12171.617 
   40800    301.08279    224.86465   -3162.1549    -2714.317   -1370.3277    12165.004 
   40850     290.9833    224.58607    -3152.869   -2720.0534   -1030.0846    12157.475 
   40900    284.67371    224.47634   -3149.2113   -2725.7808   -725.63955    12149.145 
   40950    272.34114    224.10743   -3136.9143   -2731.8275   -221.16928    12140.202 
   41000    283.45873    224.41832   -3147.2773   -2725.6539   -437.86967    12130.876 
   41050    283.51298    229.42845   -3147.6149   -2725.9108   -365.23031    12121.125 
   41100    276.11807    229.22445   -3140.8151   -2730.1104   -35.569353    12110.981 
   41150     281.6751    229.49517   -3149.8389   -2730.8686   -171.84408    12100.578 
   41200    269.87149    229.22173   -3140.7243   -2739.3109     150.0078    12089.915 
   41250    269.91246    229.18143   -3139.3809   -2737.9066    230.50037     12079.12 
   41300    287.19084    229.75094   -3158.3648   -2731.1902   -209.25384    12068.222 
   41350    277.77884    229.46808   -3148.9362   -2735.7612    217.18838    12057.058 
   41400    274.50158    229.44762    -3148.254   -2739.9537    480.25093    12045.797 
   41450    276.91192    229.48788   -3149.5961   -2737.7106    498.61584    12034.598 
   41500    278.70122    229.64577   -3154.8591   -2740.3122    465.94472    12023.454 
   41550    274.74832     229.5489   -3151.6299   -2742.9625    657.80848    12012.371 
   41600    275.58874    229.55538    -3151.846   -2741.9286    870.61689    12001.443 
   41650     283.1945    229.86399    -3162.133   -2740.9026    797.53649    11990.771 
   41700    286.58761    229.88746   -3162.9153   -2736.6379    812.66529    11980.337 
   41750    294.01672    230.10944   -3170.3145   -2732.9869    685.91762    11970.138 
   41800    299.11575    230.24637   -3174.8791   -2729.9671    682.69696    11960.119 
   41850    306.01355    230.48731   -3182.9102   -2727.7383    651.37943    11950.244 
   41900    300.93377    230.39177   -3179.7256   -2732.1094    958.15768    11940.532 
   41950    286.29424    229.96662   -3165.5541   -2739.7131    1644.3381    11931.146 
   42000    271.18751    229.37513   -3145.8377   -2742.4668    2312.3251    11922.438 
   42050    289.98266    224.99457   -3166.4858   -2735.1585     1857.665    11914.665 
   42100    281.54292    224.67181   -3155.7269   -2736.9532    2111.8329    11907.713 
   42150    305.93711    225.46707   -3182.2356   -2727.1774    1400.0534      11901.6 
   42200    305.64622    225.36628   -3178.8761   -2724.2505    1557.3517    11896.042 
   42250    297.77387     225.0337   -3167.7902   -2724.8741    1937.6807     11891.09 
   42300    303.83603    225.16487   -3172.1623   -2720.2292    1809.6452    11886.902 
   42350    298.41886     225.0006   -3166.6867   -2722.8112    2030.0754    11883.447 
   42400    310.31558    225.32683   -3177.5611   -2715.9902    1767.1926    11880.787 
   42450    305.76491    225.24708   -3174.9028   -2720.1007    1909.2174    11878.848 
   42500    307.66778    225.19363    -3173.121   -2715.4885    1998.3773    11877.673 
   42550     312.9989    225.39256    -3179.752   -2714.1899     1930.211    11877.294 
   42600    312.25404    225.27819   -3175.9397   -2711.4854    2009.8493      11877.7 
   42650    294.84663    224.70703   -3156.9011   -2718.3391    2482.0433    11878.944 
   42700    302.88676    224.86219    -3162.073   -2711.5519    2258.2022    11881.197 
   42750    311.97199    225.00009   -3166.6697    -2702.635    1986.9252    11884.407 
   42800    325.70771    225.43159   -3181.0529   -2696.5874    1587.3833    11888.398 
   42850    307.73584    224.83765   -3161.2549   -2703.5211     2179.706    11893.033 
   42900    291.03785    224.23942    -3141.314   -2708.4173    2675.2482    11898.563 
   42950    289.15093    224.16218   -3138.7395   -2708.6494    2582.7158    11905.247 
   43000    308.32293    224.78452   -3159.4839   -2700.8769    1850.2489    11913.027 
   43050    312.38241    224.81889   -3160.6296   -2695.9845    1660.8198    11921.588 
   43100    317.08704    224.93951   -3164.6502   -2693.0072    1487.4661    11930.777 
   43150    306.10118    224.53309   -3151.1029   -2695.8006    1767.6204    11940.542 
   43200    314.49122    224.78884   -3159.6281   -2691.8463      1423.22    11950.979 
   43250    309.88182    224.56042    -3152.014   -2691.0883    1420.9998     11961.96 
   43300     324.0942     225.0778   -3169.2599   -2687.1943    868.97936    11973.399 
   43350    320.61158    224.88779   -3162.9262   -2686.0408    983.64158    11985.101 
   43400    300.73913    224.28761   -3142.9203   -2695.5937    1518.7983    11997.114 
   43450    305.24174    224.37042   -3145.6805   -2691.6566    1156.1713    12009.649 
   43500    310.69745    224.49919   -3149.9729    -2687.834    857.78056    12022.568 
   43550    300.02155    224.18301   -3139.4337   -2693.1744    1109.9358    12035.748 
   43600    319.86903    224.77056   -3159.0186   -2683.2377    415.01591    12049.215 
   43650    315.83457    224.59675   -3153.2249   -2683.4449    333.52158    12062.689 
   43700    308.09325    224.27527   -3142.5089   -2684.2435    511.74408    12076.097 
   43750    302.12151    224.03613   -3134.5376   -2685.1547    570.72212    12089.535 
   43800    302.59668    224.13309   -3137.7696     -2687.68    259.68284     12103.03 
   43850    310.10217    224.33698   -3144.5661   -2683.3127   -120.08719    12116.403 
   43900    298.74691    223.87376   -3129.1255   -2684.7621    184.22305    12129.492 
   43950     277.7503    223.20417   -3106.8056   -2693.6731    674.23676    12142.444 
   44000    286.40027    223.41486   -3113.8285   -2687.8298    247.05732    12155.473 
[...]
   89400    298.46536    232.95525   -3098.5083   -2654.5637   -13.890723    12238.115 
   89450    294.88078    232.77876   -3092.6252   -2654.0124    180.00125    12236.358 
   89500    298.83479    232.87531   -3095.8438   -2651.3497      83.4516    12234.499 
   89550    295.44021    232.80889   -3093.6295   -2654.1846    167.90975    12232.512 
   89600    287.88256    232.52397   -3084.1324    -2655.929    488.70748    12230.433 
   89650    290.97764    232.56735   -3085.5782   -2652.7711    437.29776    12228.424 
   89700    313.37148    233.23583    -3107.861   -2641.7446   -236.49955    12226.419 
   89750    300.87072    232.77284    -3092.428   -2644.9056    122.35923    12224.157 
   89800    306.25506    233.00241   -3100.0802    -2644.549   -12.172559     12221.73 
   89850    314.22871    233.33197   -3111.0655   -2643.6741   -256.46194    12219.098 
   89900    306.22018    232.99952   -3099.9839   -2644.5046   0.24843194    12216.166 
   89950    307.20925    232.97682   -3099.2274   -2642.2769    36.351894    12213.028 
   90000    316.36454    233.31423   -3110.4744   -2639.9061   -126.86331    12209.715 
   90050    303.66766    232.96338   -3098.7794   -2647.0968    394.38705     12206.18 
   90100    301.97204     232.8723   -3095.7432   -2646.5827    562.83734    12202.647 
   90150    308.10202    233.01736   -3100.5787   -2642.3002    405.45676    12199.224 
   90200      305.808    232.94294   -3098.0981   -2643.2319    429.49082    12195.847 
   90250    301.36004    232.81426   -3093.8085   -2645.5583    531.48485     12192.52 
   90300    300.93234    232.91968   -3097.3228   -2649.7088    551.48403    12189.285 
   90350    304.38704    232.99397   -3099.7989   -2647.0463    538.38547     12186.16 
   90400    309.42149    233.21877   -3107.2922   -2647.0512    422.76571    12183.121 
   90450    289.33937    232.49896   -3083.2987   -2652.9283    996.98172    12180.168 
   90500    295.90137    232.65238   -3088.4126   -2648.2818    793.06939    12177.533 
   90550    306.29172    233.05301   -3101.7671   -2646.1814    514.13657     12175.13 
   90600    310.01551    233.18431   -3106.1437   -2645.0191    465.56833    12172.812 
   90650    318.01463    233.52155    -3117.385   -2644.3623    244.27512    12170.542 
   90700    307.95862    233.21477   -3107.1588   -2649.0937     636.7819    12168.234 
   90750    303.99097     233.0332   -3101.1067   -2648.9431    866.73615    12166.074 
   90800    305.20413    233.13047   -3104.3488   -2650.3808    814.67201     12164.18 
   90850    308.29005    233.23405   -3107.8017   -2649.2437    746.74391    12162.528 
   90900    315.41192    233.47528   -3115.8427   -2646.6913    595.72431    12161.084 
   90950    306.83027    233.19742   -3106.5807   -2650.1939    843.66065    12159.775 
   91000    309.56831    233.24197   -3108.0658   -2647.6064    716.37657    12158.698 
   91050    316.25561     233.4252   -3114.1732   -2643.7669    445.90661    12157.809 
   91100    314.30495    233.36267   -3112.0889   -2644.5841    441.78518    12156.954 
   91150    303.81688     233.0882   -3102.9402   -2651.0356     678.6954     12156.14 
   91200    305.48968    233.27489   -3109.1629   -2654.7701    598.26045     12155.48 
   91250    295.94034    232.89825   -3096.6082   -2656.4194    908.13002    12154.989 
   91300     310.8841    233.42642   -3114.2141   -2651.7976    468.68439    12154.722 
   91350    313.30136    233.52561   -3117.5204   -2651.5084    366.49102     12154.53 
   91400     306.8995     233.3361   -3111.2033   -2654.7135    575.96446    12154.356 
   91450    308.29148    233.43358   -3114.4527   -2655.8925    516.89482    12154.265 
   91500    307.46509    233.47072   -3115.6908   -2658.3598    480.02321    12154.253 
   91550    294.88786    233.01353    -3100.451   -2661.8277    802.65114    12154.314 
   91600    298.33828    233.13819   -3104.6062   -2660.8506    723.11496    12154.581 
   91650    310.85105    233.63673   -3121.2242   -2658.8568    379.86049    12155.029 
   91700    305.41816     233.5569   -3118.5632   -2664.2768    421.96769    12155.508 
   91750      304.616    233.48064   -3116.0215   -2662.9283    377.37711    12155.999 
   91800    293.54688     233.1148   -3103.8267    -2667.198    652.38529    12156.504 
   91850    304.10402    233.38728   -3112.9093   -2660.5776     256.4035    12157.126 
   91900    327.45578    234.24592   -3141.5305   -2654.4649   -531.45257    12157.651 
   91950    298.97583    233.31308    -3110.436   -2665.7322    358.89909    12157.773 
   92000    293.37359    233.17038   -3105.6795   -2669.3085    594.78757    12157.844 
   92050    293.16434     238.2174   -3107.2466   -2671.1869    569.09357     12158.04 
   92100    303.49243    238.59366   -3119.7886   -2668.3666     203.9948    12158.332 
   92150    292.90675     238.2359   -3107.8634   -2672.1868    444.22945    12158.578 
   92200     294.2247    238.36919   -3112.3062   -2674.6693    353.25844    12158.858 
   92250    302.22461    238.63222    -3121.074   -2671.5378     45.36181    12159.137 
   92300    312.59993    239.02804   -3134.2681   -2669.2994   -245.71609    12159.237 
   92350    298.83619     238.4888   -3116.2935   -2671.7973    250.35281     12159.07 
   92400    287.51434    238.18915   -3106.3049   -2678.6491    567.81198    12158.841 
   92450    298.87556    238.55784   -3118.5947     -2674.04    260.33187    12158.697 
   92500     288.3549    238.12188   -3104.0625   -2675.1565      622.576    12158.574 
   92550    302.05986    238.70911   -3123.6371   -2674.3459    181.89321    12158.542 
   92600    295.93553    238.52947   -3117.6489   -2677.4672    323.11086    12158.456 
   92650     294.8966    238.42658   -3114.2194   -2675.5831    386.99463    12158.364 
   92700     302.5765    238.80573   -3126.8578   -2676.7982     62.28188    12158.288 
   92750    300.32991    238.71863   -3123.9544   -2677.2364    101.97809    12158.075 
   92800    285.39267    238.20446   -3106.8154   -2682.3155    612.15614     12157.75 
   92850    287.86779    238.37603   -3112.5344   -2684.3529    473.41737    12157.551 
   92900    297.38953    238.81589   -3127.1962   -2684.8518    92.980354    12157.416 
   92950    295.11608    238.67029   -3122.3431   -2683.3803    226.48834    12157.188 
   93000     286.8356    238.30284   -3110.0946   -2683.4484    546.57488    12156.924 
   93050    284.44845    233.11212   -3103.7373   -2680.6417    640.80934    12156.759 
   93100    301.14301    233.62141   -3120.7136   -2672.7862    166.21413    12156.704 
   93150    300.95855    233.74561   -3124.8538   -2677.2008    30.792906    12156.563 
   93200    300.79899    233.83567   -3127.8556   -2680.4399   -34.847856    12156.228 
   93250    294.28981    233.62613    -3120.871   -2683.1372    187.30409    12155.691 
   93300    297.46995    233.72512   -3124.1707   -2681.7067    8.2951287    12155.041 
   93350     301.6198    233.83386   -3127.7952   -2679.1586   -66.709121    12154.199 
   93400    289.90076    233.31972   -3110.6574    -2679.452    385.53019    12153.176 
   93450    307.44576    233.82911   -3127.6371   -2670.3348    -54.65828    12152.112 
   93500    296.47408    233.56921   -3118.9737    -2677.991    253.86614     12150.86 
   93550    284.01918    233.11564   -3103.8547   -2681.3977    707.18572    12149.557 
   93600    290.01623    233.29213   -3109.7376   -2678.3605    563.80301    12148.421 
   93650    287.65642    233.27915    -3109.305   -2681.4379    502.46319    12147.428 
   93700    308.39696    233.86992   -3128.9975   -2670.2804    -133.8039    12146.471 
   93750     292.3633    233.28171   -3109.3902   -2674.5219    370.03173    12145.312 
   93800    311.11766    233.94919   -3131.6397   -2668.8757   -139.28999    12144.076 
   93850    299.52612    233.57869   -3119.2896   -2673.7672    165.48892    12142.628 
   93900    293.85769    233.46933   -3115.6443   -2678.5532    371.79063    12141.056 
   93950    299.05818    233.64573   -3121.5243   -2676.6979    353.87465    12139.473 
   94000    298.60546    233.72727   -3124.2422   -2680.0892    416.39661    12137.899 
   94050    301.55893    228.85352   -3128.4508   -2679.9048     318.6777    12136.339 
   94100    293.97657    228.62442    -3120.814   -2683.5461    535.53071    12134.761 
   94150    293.03522    228.49331   -3116.4435   -2680.5758    594.59394    12133.261 
   94200    298.02421    228.60475   -3120.1585   -2676.8701    425.06673    12131.867 
   94250      310.468    228.99967   -3133.3224   -2671.5248    63.876361    12130.471 
   94300    317.35092     229.1811   -3139.3701   -2667.3347   -103.14307    12128.911 
   94350    314.81164    229.03034   -3134.3446   -2666.0861    53.551979    12127.082 
   94400    294.40367    228.41021   -3113.6738   -2675.7706    767.90614     12125.09 
   94450    286.83441     228.0904   -3103.0132   -2676.3687    1041.2199    12123.291 
   94500    320.32381    229.17696   -3139.2318   -2662.7744    14.645671    12121.777 
   94550    309.75643    228.72236   -3124.0786   -2663.3394    369.80118    12120.141 
   94600    321.51184    229.07795   -3135.9318   -2657.7073     120.0997    12118.427 
   94650    305.82696    228.53287   -3117.7622   -2662.8678    657.25354    12116.624 
   94700     300.2197    228.38479   -3112.8264   -2666.2724     880.6055    12114.934 
   94750    311.23952    228.78154   -3126.0514   -2663.1062    655.03793     12113.48 
   94800    303.11766    228.47331    -3115.777   -2664.9124    934.65784    12112.212 
   94850    323.80961    229.06641   -3135.5471   -2653.9048     400.1953    12111.167 
   94900    308.01058    228.50772   -3116.9241   -2658.7817    973.31217    12110.176 
   94950    310.50596    228.54817   -3118.2725   -2656.4184    976.66001    12109.459 
   95000    313.05671    228.64753   -3121.5842   -2655.9361    884.32737    12109.058 
   95050    317.28546     228.6739   -3122.4633   -2650.5253    896.38607    12108.907 
   95100    315.27963    228.56791   -3118.9302   -2649.9757    956.93094    12109.028 
   95150    323.49188    228.84199   -3128.0663   -2646.8966     629.6833    12109.407 
   95200    308.11499    228.28159   -3109.3864   -2651.0887    1099.9111    12109.935 
   95250    312.62191    228.34837   -3111.6124    -2646.611    1053.5923    12110.795 
   95300    304.58945    228.03393   -3101.1311   -2648.0774    1296.9085    12112.037 
   95350    335.56084    229.07281   -3135.7603    -2636.639    457.93927    12113.669 
   95400    320.97956    228.51448   -3117.1492   -2639.7164     925.8684    12115.399 
   95450    330.99708    228.81464   -3127.1546   -2634.8216    640.11123    12117.325 
   95500    325.64169    228.58827    -3119.609   -2635.2417    846.16524    12119.385 
   95550    318.21664    228.34888   -3111.6292    -2638.306    1054.5744    12121.655 
   95600    324.51841    228.60699    -3120.233   -2637.5365    811.20942    12124.233 
   95650    318.46269    228.35478   -3111.8261    -2638.137    1022.9765    12127.025 
   95700    318.23598    228.24135    -3108.045   -2634.6931    1032.3412    12130.131 
   95750    333.02038    228.72764   -3124.2547   -2628.9122    481.85487    12133.519 
   95800    306.00475    227.87448   -3095.8162   -2640.6573    1182.8572    12137.001 
   95850    306.83098    227.95713   -3098.5708    -2642.183     1055.676    12140.852 
   95900    323.88325    228.56816   -3118.9386   -2637.1868    551.88489    12145.024 
   95950     326.2409    228.64878    -3121.626   -2636.3674     515.3421    12149.265 
   96000    317.19511    228.33897    -3111.299   -2639.4953     710.5877    12153.564 
   96050    293.83778    232.52242   -3084.0808   -2647.0193    1319.3414    12158.062 
   96100    303.46522    232.83666   -3094.5554   -2643.1739    973.33245    12163.001 
   96150     313.5376    233.16325   -3105.4417   -2639.0783    583.40164    12168.265 
   96200    309.67385    233.13915   -3104.6384    -2644.022    658.46721    12173.647 
   96250    300.07727      232.765   -3092.1668   -2645.8246    954.32689    12179.168 
   96300    311.27832    233.11224   -3103.7412   -2640.7383    497.51155    12184.944 
   96350    335.82518    234.08054   -3136.0181   -2636.5036     -425.915    12190.736 
   96400    317.71562    233.44591   -3114.8637   -2642.2858    31.373911    12196.151 
   96450    304.90356    232.96057   -3098.6857   -2645.1648    369.21848    12201.346 
   96500    304.18459    233.02598    -3100.866   -2648.4145    221.25717    12206.503 
   96550    310.39535    233.20658   -3106.8861   -2645.1965   -105.10444    12211.558 
   96600    315.74599    233.48224   -3116.0746   -2646.4264   -350.81478    12216.342 
   96650    314.45439    233.47148   -3115.7161    -2647.989   -289.61896    12220.719 
   96700     281.5051    232.44307   -3081.4355    -2662.718    642.96402    12224.768 
   96750    288.68386    232.68659   -3089.5532   -2660.1578    345.10283    12228.889 
   96800    293.68743     232.9128   -3097.0932   -2660.2554    59.896558    12233.004 
   96850    285.75593    232.66924   -3088.9746   -2663.9344    171.61956    12236.965 
   96900     300.6441    233.20983   -3106.9944   -2659.8091   -394.37341    12240.787 
   96950    306.41006    233.41978   -3113.9926   -2658.2308   -643.49304    12244.197 
   97000    307.37741    233.49135   -3116.3783   -2659.1777   -677.00532    12247.045 
   97050    307.08878    228.48494   -3116.1645   -2659.3933   -635.01099    12249.312 
   97100    300.59448    228.30347   -3110.1158   -2663.0043   -380.79281    12251.015 
   97150    286.43812      227.869   -3095.6334   -2669.5784    18.268771    12252.296 
   97200    291.48982    228.12623   -3104.2075   -2670.6385   -241.87457    12253.336 
   97250    305.05242    228.58594   -3119.5313    -2665.789   -639.90112    12254.016 
   97300    298.22383    228.36848   -3112.2825   -2668.6972   -520.57467    12254.152 
   97350    303.31994    228.53655    -3117.885   -2666.7196   -726.24382    12253.758 
   97400    299.87914    228.45785   -3115.2617   -2669.2142   -631.22238     12252.76 
   97450    290.58485    228.09243    -3103.081   -2670.8581   -316.05633     12251.22 
   97500    288.25505    228.05127   -3101.7089   -2672.9514   -335.27666    12249.292 
   97550    302.35202    228.53954   -3117.9846   -2668.2589   -818.84019    12246.945 
   97600    303.26419    228.63217   -3121.0724   -2669.9899   -876.71078    12243.965 
   97650    291.06694     228.2514   -3108.3801   -2675.4401   -481.74784    12240.325 
   97700    282.29103    228.01915   -3100.6383   -2680.7518   -202.04204     12236.22 
   97750    300.63262    228.55996   -3118.6653   -2671.4971   -664.98863    12231.758 
   97800    292.20998    228.36111   -3112.0371   -2677.3969   -405.58303    12226.783 
   97850    300.87178    228.67522   -3122.5074   -2674.9835   -585.44121     12221.34 
   97900    295.79327    228.52563   -3117.5209   -2677.5509   -487.18793      12215.4 
   97950     300.1955    228.74171   -3124.7236   -2678.2055   -697.98887    12208.981 
   98000    296.60948    228.59925   -3119.9751    -2678.791   -425.51203    12202.014 
   98050    286.72032     233.3596   -3111.9867    -2685.512    43.643859    12194.635 
   98100    292.91038    233.62007   -3120.6691   -2684.9871   -139.42101    12187.076 
   98150    300.17351    233.84756    -3128.252   -2681.7667   -365.14256    12179.269 
   98200    290.92995    233.53187   -3117.7289   -2684.9927    16.902514    12171.125 
   98250    277.09262    233.05739   -3101.9129   -2689.7586    471.63854    12162.847 
   98300    290.93405    233.59936   -3119.9787   -2687.2363    125.35725    12154.617 
   98350    290.83588    233.60555   -3120.1851   -2687.5888    236.98358    12146.307 
   98400    295.51709    233.76406   -3125.4686   -2685.9093    185.06742    12137.938 
   98450     301.1708    233.94844   -3131.6147    -2683.646     147.9065    12129.508 
   98500    292.49252     233.7123   -3123.7433   -2688.6829    526.56949    12121.014 
   98550    297.28644    233.90713   -3130.2377   -2688.0466    391.75231    12112.623 
   98600    307.28009    234.33178   -3144.3926   -2687.3367    93.798961    12104.273 
   98650    291.16339    233.81545   -3127.1818   -2694.0983    695.58527    12095.859 
   98700    301.50279    234.13563   -3137.8544   -2689.3919    558.04355    12087.605 
   98750    304.62472    234.15739   -3138.5796   -2685.4734    583.23456    12079.514 
   98800    311.39328    234.44616   -3148.2053   -2685.0314    446.01307    12071.554 
   98850    292.80054    233.81648    -3127.216   -2691.6974     1122.358    12063.709 
   98900    294.65176    233.82516   -3127.5052    -2689.233     1206.897    12056.265 
   98950    311.30385    234.42921   -3147.6403   -2684.5995    761.32811    12049.261 
   99000     311.3299    234.49601   -3149.8671   -2686.7875    802.22603    12042.516 
   99050    297.37628    233.99068   -3133.0228   -2690.6981    1238.6094    12036.045 
   99100    292.24403    233.78367   -3126.1222   -2691.4314    1401.2572    12030.044 
   99150    299.23943    234.08531   -3136.1771   -2691.0811    1263.3125    12024.599 
   99200    307.72276    234.43965   -3147.9885   -2690.2742    1102.1067    12019.654 
   99250    319.96127    234.81002   -3160.3341    -2684.416    724.08204    12015.111 
   99300    313.91297    234.68086   -3156.0288    -2689.107    877.50751    12010.788 
   99350    291.02953    233.92367   -3130.7891   -2697.9048    1647.8128    12006.786 
   99400    291.13809    233.91566   -3130.5219   -2697.4761    1708.2128    12003.441 
   99450     296.0039    234.09758    -3136.586   -2696.3027    1614.5927    12000.817 
   99500    285.08091    233.65542   -3121.8474   -2697.8112    1963.1035      11998.9 
   99550    301.88609    234.24545   -3141.5149   -2692.4822    1397.6135    11997.782 
   99600    304.00419    234.32695   -3144.2317   -2692.0485    1288.3719    11997.238 
   99650    304.20399    234.39177   -3146.3925   -2693.9121    1248.5955    11997.184 
   99700    308.26126    234.43281   -3147.7604   -2689.2451      1154.11    11997.586 
   99750    289.12278    233.77196    -3125.732   -2695.6838    1687.3667    11998.433 
   99800    295.74336    234.04774   -3134.9246   -2695.0288    1340.6271    11999.938 
   99850    316.60783    234.83273   -3161.0909   -2690.1608    603.49315    12001.922 
   99900    300.15227    234.32131   -3144.0438   -2697.5901     1063.958    12004.068 
   99950    300.10275    234.36569   -3145.5229   -2699.1428    989.18937    12006.529 
  100000    307.17131    234.74092   -3158.0307   -2701.1367    671.34984    12009.306 
Loop time of 27.3247 on 1 procs for 100000 steps with 500 atoms

Performance: 316.198 ns/day, 0.076 hours/ns, 3659.697 timesteps/s
99.8% CPU use with 1 MPI tasks x 1 OpenMP threads

MPI task timing breakdown:
Section |  min time  |  avg time  |  max time  |%varavg| %total
---------------------------------------------------------------
Pair    | 21.946     | 21.946     | 21.946     |   0.0 | 80.32
Bond    | 0.0065806  | 0.0065806  | 0.0065806  |   0.0 |  0.02
Neigh   | 0.51809    | 0.51809    | 0.51809    |   0.0 |  1.90
Comm    | 0.78514    | 0.78514    | 0.78514    |   0.0 |  2.87
Output  | 0.018335   | 0.018335   | 0.018335   |   0.0 |  0.07
Modify  | 2.7389     | 2.7389     | 2.7389     |   0.0 | 10.02
Other   |            | 1.311      |            |       |  4.80

Nlocal:    500 ave 500 max 500 min
Histogram: 1 0 0 0 0 0 0 0 0 0
Nghost:    1588 ave 1588 max 1588 min
Histogram: 1 0 0 0 0 0 0 0 0 0
Neighs:    14621 ave 14621 max 14621 min
Histogram: 1 0 0 0 0 0 0 0 0 0

Total # of neighbors = 14621
Ave neighs/atom = 29.242
Ave special neighs/atom = 0
Neighbor list builds = 626
Dangerous builds = 0

write_data      ${walker}/final_restart_file
write_data      8/final_restart_file

quit
