LAMMPS (19 May 2017)
Processor partition = 8
  using 1 OpenMP thread(s) per MPI task
# gREM variables
variable        lambda world 1000 1005 1010 1015 1020 1025 1030 1035 1040 1045 1050 1055 1060 1065 1070 1075
variable        walker world 0 1 2 3 4 5 6 7 8 9 10 11 12 13 14 15
variable        replica world 1 3 7 2 4 6 5 8 11 14 0 10 12 13 9 15

variable        T0 equal 300.0
variable        press equal 0.0

units           real
atom_style      full
pair_style      lj/cut 5.0

# LJ particles
read_data       ${walker}/restart_file
read_data       8/restart_file
  orthogonal box = (0.938509 0.938509 0.938509) to (24.0615 24.0615 24.0615)
  1 by 1 by 1 MPI processor grid
  reading atoms ...
  500 atoms
  reading velocities ...
  500 velocities
  0 = max # of 1-2 neighbors
  0 = max # of 1-3 neighbors
  0 = max # of 1-4 neighbors
  1 = max # of special neighbors

#dump            dump all xyz 1000 ${walker}/dump.xyz

fix             fxnpt all npt temp ${T0} ${T0} 1000.0 iso ${press} ${press} 10000.0
fix             fxnpt all npt temp 300 ${T0} 1000.0 iso ${press} ${press} 10000.0
fix             fxnpt all npt temp 300 300 1000.0 iso ${press} ${press} 10000.0
fix             fxnpt all npt temp 300 300 1000.0 iso 0 ${press} 10000.0
fix             fxnpt all npt temp 300 300 1000.0 iso 0 0 10000.0
fix             fxgREM all grem ${lambda} -.03 -30000 fxnpt
fix             fxgREM all grem 1040 -.03 -30000 fxnpt
thermo_modify   press fxgREM_press

thermo          50
thermo_style    custom step temp f_fxgREM pe etotal press vol
WARNING: New thermo_style command, previous thermo_modify settings will be lost (../output.cpp:705)
timestep        1.0

temper/grem     100000 1000 ${lambda} fxgREM fxnpt 10294 98392 ${walker}
temper/grem     100000 1000 1040 fxgREM fxnpt 10294 98392 ${walker}
temper/grem     100000 1000 1040 fxgREM fxnpt 10294 98392 8
Neighbor list info ...
  update every 1 steps, delay 10 steps, check yes
  max neighbors/atom: 2000, page size: 100000
  master list distance cutoff = 7
  ghost atom cutoff = 7
  binsize = 3.5, bins = 7 7 7
  1 neighbor lists, perpetual/occasional/extra = 1 0 0
  (1) pair lj/cut, perpetual
      attributes: half, newton on
      pair build: half/bin/newton
      stencil: half/bin/3d/newton
      bin: standard
Per MPI rank memory allocation (min/avg/max) = 5.721 | 5.721 | 5.721 Mbytes
Step Temp f_fxgREM PotEng TotEng Press Volume 
       0    321.53972    231.31441   -3043.8135   -2565.5476    493.02254    12363.219 
      50    333.80014    231.83377   -3061.1256   -2564.6232    131.74165    12363.219 
     100    324.93417    231.42635    -3047.545   -2564.2301    396.87088    12363.107 
     150    319.73159    231.30738   -3043.5795    -2568.003    454.66327    12362.982 
     200    325.72263    231.55034    -3051.678   -2567.1903    265.07377    12362.869 
     250    303.92742    230.76666   -3025.5552   -2573.4862    1002.7348    12362.725 
     300    317.26758    231.26651   -3042.2171   -2570.3056     556.2758    12362.855 
     350    340.16785    232.01585    -3067.195   -2561.2211   -256.26968    12363.061 
     400    324.35478    231.60406   -3053.4688   -2571.0156    147.74889    12362.946 
     450    297.76658     230.6711     -3022.37   -2579.4647    904.23523    12362.712 
     500     302.7989    230.85623   -3028.5408   -2578.1504    794.25627    12362.711 
     550    311.12627    231.22744   -3040.9148   -2578.1381      602.429     12362.94 
     600    313.48361    231.44344   -3048.1146   -2581.8315    431.13984    12363.305 
     650    326.01858    231.87244   -3062.4147   -2577.4868   -71.401784    12363.667 
     700    312.58946    231.45389    -3048.463   -2583.5099      209.124    12363.818 
     750     312.9435    231.42097   -3047.3657   -2581.8859    172.06815    12363.836 
     800    316.17521    231.69473    -3056.491   -2586.2044   -79.126745    12363.706 
     850    315.35095    231.74713   -3058.2377   -2589.1771   -138.38093    12363.342 
     900    315.39706    231.69774   -3056.5912    -2587.462   -4.9841214    12362.698 
     950    301.31128    231.29029   -3043.0098   -2594.8321    340.80113     12361.85 
    1000    318.62463     231.9879   -3066.2632   -2592.3332    -270.4302    12360.902 
    1050    294.86969    231.17464   -3039.1545   -2600.5582     485.7589    12359.681 
    1100    303.21554    231.49343   -3049.7809   -2598.7707    212.71459    12358.448 
    1150    306.54343    231.78043   -3059.3475   -2603.3874   -61.130529    12357.133 
    1200    300.25864    231.60341   -3053.4469   -2606.8349    138.92909      12355.6 
    1250    308.96688    231.83347   -3061.1155   -2601.5507   -78.444607    12353.898 
    1300    304.70135    231.72508   -3057.5026   -2604.2824   -33.547166    12351.962 
    1350    313.03238    232.18742    -3072.914   -2607.3021    -314.0383    12349.757 
    1400    299.26324    231.71182   -3057.0608   -2611.9294     92.85002    12347.217 
    1450    300.08252    231.75913   -3058.6376   -2612.2876    136.91176    12344.489 
    1500    300.34044    231.85499    -3061.833   -2615.0993    147.98493    12341.629 
    1550    319.03587    232.46848   -3082.2826   -2607.7409   -367.48779    12338.596 
    1600    305.46671    232.03517    -3067.839   -2613.4804    163.62519    12335.206 
    1650    296.24244    231.71307   -3057.1024   -2616.4643    587.54374    12331.689 
    1700    306.48061    232.04089   -3068.0298   -2612.1631    291.91842    12328.239 
    1750    298.49941    231.78575    -3059.525   -2615.5298    471.55207    12324.779 
    1800    297.67964     231.7918   -3059.7267   -2616.9508    463.40587    12321.359 
    1850    308.66779    232.16038   -3072.0128   -2612.8929    99.703271    12317.966 
    1900    312.72716      232.315   -3077.1668   -2612.0089   -8.3078133    12314.435 
    1950    311.19715    232.35222   -3078.4074   -2615.5253    78.168444     12310.69 
    2000    302.78048    232.02159   -3067.3864   -2617.0234    292.99554    12306.791 
    2050    301.73013     236.9279   -3064.2632   -2615.4625    297.60287    12302.836 
    2100    304.67306    237.08136   -3069.3786   -2616.2005    191.22928    12298.842 
    2150    290.50773    236.67758   -3055.9194   -2623.8112    566.77953    12294.807 
    2200    288.44096    236.70963   -3056.9875   -2627.9534    603.44537    12290.869 
    2250    287.09343    236.64576   -3054.8588    -2627.829    748.22623    12287.082 
    2300     296.9956    237.07063    -3069.021   -2627.2625    345.48019      12283.5 
    2350    315.47927    237.64666    -3088.222   -2618.9705   -226.77364    12279.891 
    2400     287.2093    236.63695   -3054.5651    -2627.363    740.29437    12276.045 
    2450    282.10192    236.55885   -3051.9616   -2632.3563    1042.0317    12272.388 
    2500    286.39583    236.67499   -3055.8328   -2629.8407    1016.0979    12269.105 
    2550    292.82115    236.83207   -3061.0688   -2625.5196    804.79631    12266.188 
    2600    305.82632      237.316   -3077.1999   -2622.3064    312.01682    12263.516 
    2650    305.02546     237.3732   -3079.1067   -2625.4044    312.29239    12260.845 
    2700    305.97027     237.4375   -3081.2498   -2626.1423    299.97506    12258.165 
    2750    308.89908    237.56523   -3085.5077   -2626.0438    252.50192    12255.458 
    2800    297.89408    237.24954   -3074.9847   -2631.8899    668.98351    12252.708 
    2850    291.80568    236.98828   -3066.2759    -2632.237    1002.6818    12250.127 
    2900    298.47172    237.21504   -3073.8348   -2629.8807    768.60454    12247.887 
    2950    294.98274    237.08343   -3069.4476   -2630.6831    796.73145      12245.9 
    3000    299.49372    237.21377   -3073.7923   -2628.3181    626.87755    12244.137 
    3050    299.30006    237.20562   -3073.5208   -2628.3346    589.40212    12242.539 
    3100    303.10357    237.40973   -3080.3242   -2629.4806    435.76101    12241.068 
    3150    300.56592    237.31155   -3077.0515   -2629.9825     527.1421    12239.671 
    3200    304.54123    237.48729   -3082.9097   -2629.9277    478.08384    12238.351 
    3250    305.57768    237.50474   -3083.4913   -2628.9676     602.5375    12237.106 
    3300    299.79909    237.23104    -3074.368   -2628.4395    852.33122    12236.019 
    3350    307.81353    237.52802   -3084.2675   -2626.4182    571.97426    12235.163 
    3400     307.3277    237.58932   -3086.3107    -2629.184    503.78415    12234.443 
    3450    315.45279    237.88964   -3096.3215   -2627.1093    136.86205    12233.809 
    3500    313.69841    237.86777   -3095.5924   -2628.9898    145.91488    12233.061 
    3550    304.86903    237.48358   -3082.7861   -2629.3165    483.70888    12232.209 
    3600    294.73857    237.22823   -3074.2744   -2635.8731      819.615    12231.448 
    3650    299.32311    237.30638   -3076.8792   -2631.6587    791.00992    12230.927 
    3700    300.53143    237.37253   -3079.0845   -2632.0668    725.98135    12230.662 
    3750    297.28594    237.32183   -3077.3943    -2635.204    761.44865    12230.595 
    3800    303.81529    237.63222   -3087.7408   -2635.8386    441.49814    12230.737 
    3850    321.11982    238.15363   -3105.1211   -2627.4797   -55.937544    12230.909 
    3900     298.4548    237.39489   -3079.8296   -2635.9007    722.37987    12230.919 
    3950    284.09125    236.92999   -3064.3331   -2641.7689    1163.4426    12231.132 
    4000    310.36118    237.80467    -3093.489   -2631.8502    302.68724    12231.724 
    4050    307.80069    237.83395   -3094.4648   -2636.6346    308.50889    12232.335 
    4100    295.97671    237.46273   -3082.0909    -2641.848    690.81821    12232.941 
    4150    293.99101    237.45905   -3081.9682   -2644.6789    678.63003    12233.721 
    4200    305.03111    237.88102   -3096.0341   -2642.3234    184.73801    12234.664 
    4250     308.9115    237.99799   -3099.9331   -2640.4507    -71.65206    12235.525 
    4300    310.88708    238.07464    -3102.488    -2640.067   -124.49888    12236.152 
    4350     301.4567    237.76603   -3092.2012   -2643.8072    124.29438    12236.547 
    4400    292.02338    237.45518   -3081.8393   -2647.4767    338.03074    12236.817 
    4450    279.50917     237.0894   -3069.6468   -2653.8981    617.90658    12237.096 
    4500    295.65035    237.65867   -3088.6222   -2648.8647    105.90753    12237.499 
    4550    303.05121    237.91883   -3097.2943   -2646.5286    -177.4708    12237.781 
    4600     296.4468    237.66073    -3088.691   -2647.7489    59.796981    12237.801 
    4650    289.54345    237.42068   -3080.6895   -2650.0155    426.84284    12237.675 
    4700    289.34907     237.5266   -3084.2199   -2653.8351    512.67395    12237.578 
    4750     301.5735    238.06492   -3102.1641   -2653.5964    86.991671    12237.546 
    4800    302.62414    238.13856   -3104.6188   -2654.4883    8.1385573    12237.403 
    4850    297.47773    237.92714   -3097.5713   -2655.0958    82.161031    12237.092 
    4900    288.39081    237.65884   -3088.6279   -2659.6684    252.33719    12236.632 
    4950    295.24314    237.97252   -3099.0839   -2659.9321    -45.27586    12236.102 
    5000     301.0106     238.2656   -3108.8533   -2661.1229   -252.36942    12235.366 
    5050    279.17362    232.58367   -3086.1224   -2670.8728    454.02265    12234.344 
    5100    291.49169    233.06585   -3102.1951   -2668.6233    63.212864    12233.309 
    5150    299.17393    233.30936   -3110.3121   -2665.3135   -266.34223    12232.144 
    5200    305.28679    233.57541   -3119.1804   -2665.0894   -499.07345    12230.629 
    5250     278.6638    232.74012   -3091.3374   -2676.8461    257.46445    12228.704 
    5300    285.80586    233.01196   -3100.3986   -2675.2841    86.691068    12226.663 
    5350    289.99362    233.19662   -3106.5542   -2675.2106   -67.029034    12224.476 
    5400    289.59298    233.25187   -3108.3955   -2677.6479   -192.81061     12222.06 
    5450    284.84954     233.0956   -3103.1868   -2679.4947   -146.57582    12219.358 
    5500    293.46159    233.38488   -3112.8294   -2676.3275   -380.07825    12216.355 
    5550     293.6286    233.40823   -3113.6077   -2676.8574   -420.66159    12212.961 
    5600    308.57326    233.94988   -3131.6627   -2672.6834   -833.45378    12209.093 
    5650      288.533    233.26452   -3108.8173   -2679.6463   -171.13192    12204.626 
    5700     282.3799    232.97115   -3099.0384   -2679.0197    179.32616    12199.841 
    5750    288.29705    233.22763   -3107.5876   -2678.7675    46.091969    12194.942 
    5800    300.96443    233.72673   -3124.2244   -2676.5626     -314.824    12189.847 
    5850    287.28653    233.34567   -3111.5223   -2684.2054    99.375797    12184.424 
    5900    295.18871    233.67652   -3122.5507   -2683.4798   -49.062337    12178.816 
    5950    305.68144    234.03588   -3134.5293   -2679.8514   -293.02835    12172.964 
    6000    298.32436    233.82645   -3127.5484   -2683.8136   -35.798477     12166.76 
    6050     293.3297    228.66205   -3122.0682   -2685.7625    145.02478    12160.317 
    6100    288.35392    228.42982   -3114.3273   -2685.4227    312.16909    12153.743 
    6150    299.68467    228.81046   -3127.0153   -2681.2571    38.030391    12147.087 
    6200    285.17509    228.35544   -3111.8479   -2687.6716    521.49266    12140.265 
    6250    291.47031    228.56945   -3118.9817   -2685.4417    419.93378    12133.457 
    6300    306.19171     229.1225   -3137.4167   -2681.9798   -33.769173    12126.643 
    6350    304.03163    229.07214    -3135.738    -2683.514    75.240086    12119.593 
    6400    284.94127    228.51909   -3117.3032   -2693.4746    726.33132    12112.378 
    6450    287.48677    228.58895   -3119.6317   -2692.0169    717.66852    12105.309 
    6500    289.10487     228.6896   -3122.9868   -2692.9652    675.80516    12098.415 
    6550    304.14184    229.18043   -3139.3477   -2686.9598    277.08422    12091.638 
    6600    303.01206    229.27662   -3142.5541   -2691.8466    353.92986    12084.815 
    6650    293.02734    228.92532    -3130.844    -2694.988    799.68362    12077.978 
    6700     302.5451    229.32975   -3144.3251   -2694.3122     524.5893      12071.3 
    6750    301.65312    229.23925   -3141.3082    -2692.622    600.90211    12064.717 
    6800    286.79081    228.77659   -3125.8862   -2699.3066    1141.4241    12058.263 
    6850    286.11717    228.67773   -3122.5911   -2697.0135    1286.3223    12052.164 
    6900    290.51023    228.86936   -3128.9786   -2696.8667    1117.3081    12046.527 
    6950    295.39889     229.0292   -3134.3067   -2694.9233     1006.215    12041.262 
    7000    293.62448    229.01461   -3133.8203   -2697.0762    1120.1346    12036.319 
    7050    295.80519    229.19175   -3139.7249   -2699.7371    1062.2388    12031.753 
    7100    312.29743    229.64039   -3154.6797   -2690.1609    658.07632    12027.506 
    7150    299.94062    229.29923   -3143.3077   -2697.1687    1108.7029    12023.441 
    7200    303.21001    229.46318   -3148.7726   -2697.7707    1030.3143    12019.707 
    7250    293.19514    229.23372   -3141.1241   -2705.0185    1299.4352    12016.324 
    7300    286.51205    229.09166   -3136.3887   -2710.2237    1557.0936    12013.409 
    7350    300.86391    229.56731   -3152.2436   -2704.7313    1119.3508    12011.079 
    7400     300.9133    229.58817   -3152.9392   -2705.3534    1048.6508    12009.155 
    7450     291.4585    229.21221   -3140.4071   -2706.8846    1323.2811    12007.582 
    7500    284.03571     229.0475   -3134.9165   -2712.4349    1442.8142    12006.499 
    7550    290.06055    229.40843   -3146.9475   -2715.5045     1144.102    12005.957 
    7600    298.68633    229.67537   -3155.8458   -2711.5725    909.92589    12005.809 
    7650    286.37434     229.2554   -3141.8468   -2715.8866    1214.6234    12005.967 
    7700    294.65774    229.65035   -3155.0118   -2716.7307    792.34609    12006.537 
    7750    297.23634    229.81694   -3160.5645    -2718.448    614.42693    12007.344 
    7800    300.66309    230.01561   -3167.1871   -2719.9735    490.43067    12008.266 
    7850    295.40541    229.77573   -3159.1912    -2719.798     661.0951    12009.265 
    7900    285.72621    229.59127   -3153.0424   -2728.0463    1063.7975     12010.41 
    7950    265.86678    228.95201   -3131.7337    -2736.277    1803.3049    12011.964 
    8000    277.24541    229.39986   -3146.6621   -2734.2806    1355.3107    12014.225 
    8050    283.78792    224.63507   -3154.5023   -2732.3893     1032.099    12017.023 
    8100    284.53548     224.6066   -3153.5532   -2730.3283    922.64007     12020.17 
    8150    299.52156    225.13086   -3171.0287   -2725.5131    318.17247    12023.569 
    8200    296.93916    225.11406   -3170.4688   -2728.7943    244.73295    12026.957 
    8250    285.62965    224.67709   -3155.9029   -2731.0505    462.63359    12030.289 
    8300    286.16178    224.65329   -3155.1096   -2729.4656    302.28025    12033.643 
    8350     275.9122    224.42007   -3147.3358   -2736.9373    497.19243    12036.977 
    8400    283.61416    224.67641   -3155.8804   -2734.0258     308.1658    12040.338 
    8450    276.29389    224.50686   -3150.2288   -2739.2625    488.18763    12043.688 
    8500    280.06567    224.73572   -3157.8572   -2741.2807    264.85191    12047.089 
    8550    279.44313    224.67225   -3155.7417   -2740.0912    236.83141    12050.445 
    8600    271.25216    224.32536   -3144.1788   -2740.7117    510.15151    12053.751 
    8650      280.797    224.60998   -3153.6661   -2736.0019    212.90209      12057.1 
    8700    289.53354    224.87614    -3162.538   -2731.8788   -99.579939    12060.371 
    8750    283.89719    224.63962    -3154.654   -2732.3784    3.6612137    12063.417 
    8800    285.53657    224.67183   -3155.7276   -2731.0136   -108.52303    12066.236 
    8850     285.1976    224.70646   -3156.8821   -2732.6723      -127.55    12068.804 
    8900    287.19547     224.7891   -3159.6366   -2732.4551   -115.22424    12071.091 
    8950    272.41642    224.27809   -3142.6029   -2737.4041    395.57276    12073.147 
    9000     269.2607    224.21889   -3140.6297   -2740.1248    418.72855    12075.202 
    9050    299.27814    220.19727   -3173.2423   -2728.0887    -396.9244     12077.21 
    9100    277.26493    219.47697   -3149.2322   -2736.8216    294.55137    12078.892 
    9150    290.06755    219.86077   -3162.0257   -2730.5722    9.3331679    12080.443 
    9200    293.41046    219.84571   -3161.5236   -2725.0978   -26.348785    12081.792 
    9250     283.3784    219.49127   -3149.7091   -2728.2052    181.71284    12082.917 
    9300    301.26487    219.98726   -3166.2419   -2718.1332   -395.32586     12083.84 
    9350    292.46603    219.73278   -3157.7594   -2722.7384    -234.9068    12084.365 
    9400    290.89497    219.57997   -3152.6656   -2719.9814   -129.05036    12084.511 
    9450    281.89328     219.2638   -3142.1268   -2722.8319    287.62195    12084.364 
    9500    290.13884    219.39781   -3146.5938   -2715.0342     211.0149    12084.116 
    9550    290.37872    219.31213   -3143.7378   -2711.8214    319.04287    12083.767 
    9600    295.86858    219.53517   -3151.1723   -2711.0902    256.91519    12083.349 
    9650    293.54966    219.42397   -3147.4658   -2710.8329    364.79827    12082.846 
    9700    286.53707    219.15329    -3138.443   -2712.2408    524.48164    12082.317 
    9750    309.41495    219.85292   -3161.7641   -2701.5328   -159.91254    12081.783 
    9800    301.13893     219.5639   -3152.1299   -2704.2086    118.69753    12080.974 
    9850    292.15892    219.26383   -3142.1278   -2707.5635     515.8618    12079.985 
    9900    301.23204    219.45106   -3148.3687   -2700.3089    402.28628    12078.997 
    9950    298.34992    219.27323   -3142.4411   -2698.6682    536.53895    12077.999 
   10000    301.50561    219.38126   -3146.0421   -2697.5753    394.80888    12077.019 
   10050    297.57128    224.23661   -3141.2203   -2698.6055    472.74697    12076.035 
   10100    302.72348    224.38482   -3146.1608   -2695.8825    396.15294    12075.052 
   10150    284.85067    223.73272   -3124.4239   -2700.7301    964.20012    12074.102 
   10200    296.95134    224.24914   -3141.6379   -2699.9453     564.1192    12073.381 
   10250     307.8695    224.58928    -3152.976   -2695.0435    172.64877    12072.737 
   10300    311.21147    224.51711   -3150.5703   -2687.6669    108.19853    12071.954 
   10350    295.68188    223.98118   -3132.7061   -2692.9017     675.1602    12071.024 
   10400    286.10314    223.67703   -3122.5678   -2697.0111    1055.7191     12070.23 
   10450    299.65495    224.23347   -3141.1155   -2695.4015    607.68449    12069.726 
   10500    299.42838    224.17351   -3139.1169   -2693.7399    663.41194    12069.352 
   10550    291.55421    223.86798   -3128.9325   -2695.2677    981.48127    12069.119 
   10600    294.59803    223.87121   -3129.0404   -2690.8481    933.75474    12069.175 
   10650     304.0168    224.16571   -3138.8569   -2686.6549    630.83392    12069.502 
   10700    295.16412    223.81302   -3127.1008   -2688.0666    902.52627     12069.97 
   10750    300.49237    223.95747   -3131.9158   -2684.9561    736.66581    12070.662 
   10800    303.05056     224.0022   -3133.4066   -2682.6418    672.08724    12071.544 
   10850    307.35495    224.13414   -3137.8046   -2680.6374    665.11179    12072.552 
   10900    291.87964    223.63275   -3121.0916   -2686.9428     1190.909    12073.729 
   10950    292.03014    223.65614   -3121.8714   -2687.4987    1207.9357    12075.294 
   11000    292.26487    223.64218    -3121.406   -2686.6841    1271.8994    12077.305 
   11050    306.94602    224.24295   -3141.4316   -2684.8726    779.62774    12079.757 
   11100    302.04735    224.04572   -3134.8573   -2685.5848    874.00377    12082.444 
   11150    294.11293    223.78503   -3126.1676   -2688.6969    992.17426    12085.391 
   11200    307.28907    224.27786   -3142.5954   -2685.5262    431.18381    12088.624 
   11250    317.16784    224.48871   -3149.6236   -2677.8605    167.46715    12091.887 
   11300    291.84141    223.58386   -3119.4619   -2685.3699    977.91399    12095.098 
   11350    296.41686    223.72744   -3124.2481   -2683.3505    903.41532    12098.568 
   11400    307.67121     224.0689   -3135.6299   -2677.9923    527.01226    12102.308 
   11450    299.26301    223.80783   -3126.9275   -2681.7965    584.32267    12106.167 
   11500    306.70257    224.01129   -3133.7098   -2677.5129    260.66883    12110.114 
   11550    302.65423    223.93163   -3131.0542    -2680.879    391.36678     12114.01 
   11600    291.97389    223.53783   -3117.9278   -2683.6388    743.34707    12117.926 
   11650    309.83813    224.12502   -3137.5008   -2676.6401    112.92301    12121.985 
   11700    310.73491    224.21076   -3140.3586    -2678.164   -35.772851    12125.924 
   11750    289.20567    223.47327   -3115.7756   -2685.6041    653.08279    12129.676 
   11800     309.0244    224.08414    -3136.138   -2676.4876    86.935479    12133.498 
   11850    308.22053    223.95721   -3131.9069   -2673.4522    112.99543    12137.211 
   11900    299.65091    223.62885   -3120.9618   -2675.2538    418.32627    12140.791 
   11950     308.3919    223.92448   -3130.8159   -2672.1064    176.18665    12144.352 
   12000    295.65137    223.57317   -3119.1057   -2679.3466    474.16252    12147.831 
   12050    295.60876    223.53788   -3117.9294   -2678.2338     377.5431    12151.337 
   12100    307.72635    223.98904   -3132.9679   -2675.2482   -89.025771    12154.821 
   12150    301.48632    223.79397   -3126.4657   -2678.0276    39.677912    12158.078 
   12200    295.80832    223.58695   -3119.5651   -2679.5727    162.73901    12161.138 
   12250    301.71583    223.67048   -3122.3494   -2673.5699    10.275038    12164.056 
   12300    293.19861    223.32134   -3110.7115   -2674.6008    247.79233    12166.794 
   12350     299.2053    223.49806   -3116.6021   -2671.5569    89.151529    12169.414 
   12400    291.09049    223.25604   -3108.5347   -2675.5597    321.48572    12171.931 
   12450    305.86539    223.78515   -3126.1715     -2671.22   -148.69341    12174.372 
   12500     295.1067    223.43789   -3114.5963   -2675.6474   -9.4550405     12176.55 
   12550    295.24587    223.36596   -3112.1987   -2673.0429   -99.147354     12178.49 
   12600    308.23976    223.84284   -3128.0946   -2669.6113   -519.98756    12180.145 
   12650    298.03926    223.45783   -3115.2609   -2671.9501   -131.51875    12181.332 
   12700    284.78112    223.07496   -3102.4986   -2678.9083    292.92895    12182.214 
   12750    307.28023    223.77901   -3125.9669   -2668.9108   -336.08188    12182.978 
   12800    300.36437    223.58392    -3119.464   -2672.6947   -147.94872    12183.383 
   12850    291.98513    223.34451   -3111.4838    -2677.178    142.19236    12183.485 
   12900     299.6722    223.51101   -3117.0338   -2671.2941    -73.38172    12183.418 
   12950    301.75654    223.65203   -3121.7342   -2672.8942   -249.67024    12183.095 
   13000    302.91662    223.63555   -3121.1849   -2670.6194   -229.99634    12182.403 
   13050     295.8685    223.46397   -3115.4657   -2675.3838   -7.1767363     12181.36 
   13100    304.77235    223.72656   -3124.2188    -2670.893   -284.22793     12180.05 
   13150    288.35661    223.22921   -3107.6404   -2678.7318    205.62076    12178.386 
   13200    291.58721    223.31904   -3110.6346   -2676.9207    239.37195    12176.569 
   13250     307.3085    223.84006    -3128.002   -2670.9039   -175.12332    12174.646 
   13300     305.8252    223.74746   -3124.9153   -2670.0235   -59.822905    12172.417 
   13350    304.91683    223.67699   -3122.5664   -2669.0257    79.189024    12169.897 
   13400    299.65113    223.43589   -3114.5296   -2668.8212    301.01782    12167.185 
   13450    298.93004    223.34323   -3111.4412   -2666.8054    395.44565    12164.377 
   13500    302.27855    223.40603   -3113.5343   -2663.9179    356.34582    12161.523 
   13550    304.99393    223.41701   -3113.9005   -2660.2451    412.71351    12158.608 
   13600    304.02282    223.37777   -3112.5924   -2660.3815    589.16102     12155.68 
   13650    303.69874    223.30549   -3110.1831   -2658.4543     631.3398    12152.801 
   13700    291.81608    222.96658   -3098.8859   -2664.8316    945.47683    12150.024 
   13750    305.70073    223.39964   -3113.3215   -2658.6148    594.31573    12147.485 
   13800    311.63101     223.5376   -3117.9199   -2654.3924    510.62692    12145.039 
   13850    319.32938    223.75698   -3125.2325   -2650.2543    406.01295    12142.598 
   13900    304.60541    223.22739   -3107.5796   -2654.5022    855.12437    12140.143 
   13950    309.83909    223.27578   -3109.1927   -2648.3305    733.40931     12137.87 
   14000    326.98639    223.75396    -3125.132   -2638.7646    275.34645     12135.73 
   14050    323.70307    223.63438   -3121.1461   -2639.6623    495.80853    12133.504 
   14100    316.87624    223.37404   -3112.4681   -2641.1387    895.40875    12131.284 
   14150       309.55    223.11233   -3103.7443   -2643.3122    1232.0954    12129.279 
   14200    319.28255    223.36786    -3112.262   -2637.3534    1059.7373    12127.641 
   14250    322.32237    223.43929   -3114.6431    -2635.213    1024.9089    12126.334 
   14300    333.78086    223.86579   -3128.8597    -2632.386    724.59886    12125.304 
   14350    322.51297     223.5058     -3116.86   -2637.1464    1111.2208     12124.46 
   14400    322.31284    223.37736   -3112.5785   -2633.1626      1155.45    12123.933 
   14450    336.26916    223.80664    -3126.888   -2626.7132    701.16794    12123.745 
   14500    323.50415     223.3609   -3112.0302   -2630.8423    1063.0757    12123.721 
   14550    304.86532    222.73853   -3091.2845   -2637.8204    1634.5981    12124.035 
   14600    322.72407    223.37603   -3112.5343   -2632.5067    1150.9499    12124.927 
   14650    313.67553    223.09622   -3103.2074   -2636.6388    1346.3047     12126.26 
   14700    315.16982    223.08244    -3102.748   -2633.9568    1227.2337    12128.076 
   14750    313.84134    222.97778   -3099.2593   -2632.4441    1190.6046     12130.33 
   14800    319.86898    223.12388   -3104.1293   -2628.3484    1023.4091    12133.002 
   14850    314.10197    222.99625   -3099.8749   -2632.6721    1116.3677    12136.032 
   14900    334.50419    223.65022    -3121.674   -2624.1244    513.13267    12139.404 
   14950    324.18867    223.36038   -3112.0125   -2629.8065    723.48491    12142.875 
   15000    308.86686    222.83822   -3094.6072   -2635.1912    1143.4136     12146.53 
   15050    316.92601    228.17975   -3105.9916   -2634.5882    825.46895    12150.576 
   15100    305.90266    227.90053   -3096.6842   -2641.6772    1014.5721    12154.917 
   15150    308.50305    227.99079   -3099.6931   -2640.8182    837.45168    12159.593 
   15200    309.86024    228.00549   -3100.1831   -2639.2894    674.86828    12164.551 
   15250    312.01138    228.05307   -3101.7692   -2637.6759     507.7415    12169.708 
   15300    313.05325    228.23155   -3107.7184   -2642.0754    292.50066    12174.965 
   15350     310.3223     228.2447   -3108.1565   -2646.5756    272.63781    12180.233 
   15400    305.39655    228.14627   -3104.8757   -2650.6215    384.86086    12185.488 
   15450    304.05699    228.04475   -3101.4916   -2649.2298    440.46853    12190.774 
   15500    312.64471    228.34101    -3111.367   -2646.3316    91.516406    12196.102 
   15550    302.41114    228.08296   -3102.7653   -2652.9517    296.85304    12201.343 
   15600    306.75714    228.19371   -3106.4569   -2650.1789     229.0955     12206.57 
   15650    302.35524    228.14663   -3104.8876   -2655.1571    274.52334    12211.779 
   15700    297.38416    228.01233    -3100.411   -2658.0746    213.95997    12216.965 
   15750     303.9433    228.35461   -3111.8202   -2659.7276   -253.76779    12222.081 
   15800    304.58137    228.39301   -3113.1004   -2660.0587   -400.52233    12226.918 
   15850    285.65117    227.78121   -3092.7069   -2667.8225    42.306206    12231.405 
   15900    285.26151    227.86513   -3095.5044   -2671.1995   -58.674551    12235.716 
   15950    296.59409    228.20135   -3106.7116   -2665.5503   -504.60221    12239.818 
   16000    305.97099       228.51   -3116.9999   -2661.8912   -912.93243    12243.468 
   16050    303.24824    233.50071   -3116.6902   -2665.6315     -848.448    12246.459 
   16100    282.57494    232.81147   -3093.7157   -2673.4069   -203.05075    12248.849 
   16150    291.48521    233.16344    -3105.448   -2671.8858   -443.72918    12250.896 
   16200    282.46508     232.9382     -3097.94   -2677.7947   -169.41614    12252.575 
   16250    291.22219    233.10072   -3103.3574   -2670.1864   -355.45566    12253.943 
   16300    291.82939    233.13596   -3104.5321    -2670.458   -422.23452    12254.942 
   16350    285.53037    232.98029   -3099.3431   -2674.6383   -228.03923    12255.535 
   16400    283.97517    232.91127   -3097.0422   -2674.6507   -69.900512    12255.795 
   16450    282.19203    232.79159   -3093.0528   -2673.3136   0.84943358    12255.818 
   16500    292.98515    233.20324   -3106.7746   -2670.9814   -384.00366    12255.623 
   16550    283.98499    232.88387   -3096.1292    -2673.723   -179.93798    12255.045 
   16600    286.63002    233.05246   -3101.7485   -2675.4081   -327.25671    12254.137 
   16650    287.20345    233.04447   -3101.4824   -2674.2891   -345.28789     12252.86 
   16700    286.71822    233.08061   -3102.6871   -2676.2155   -320.20126    12251.186 
   16750    281.99804    232.90484    -3096.828   -2677.3772   -175.29955     12249.14 
   16800    285.90364    233.14417   -3104.8056   -2679.5456   -312.06434    12246.744 
   16850    289.38038    233.19339   -3106.4465   -2676.0151   -337.15548    12243.961 
   16900    291.75812    233.22663   -3107.5542   -2673.5861   -343.66991    12240.784 
   16950    291.06543    233.19214   -3106.4045   -2673.4668   -330.70107    12237.185 
   17000    293.55988    233.27969   -3109.3231    -2672.675   -485.14451    12233.141 
   17050    286.01891    228.00509   -3100.1696   -2674.7381   -223.51159    12228.604 
   17100    297.13098     228.3267     -3110.89   -2668.9301   -417.72094    12223.654 
   17150     285.4295    227.93662   -3097.8873   -2673.3325    64.475225     12218.27 
   17200    289.03562    228.02484   -3100.8282   -2670.9096    154.96422    12212.619 
   17250    291.69002    228.15826   -3105.2755   -2671.4087    198.09411    12206.788 
   17300    306.27021    228.56653   -3118.8844   -2663.3307   -169.20951    12200.759 
   17350    303.05719    228.47867   -3115.9556    -2665.181   -107.49039    12194.388 
   17400    300.26247      228.422   -3114.0668   -2667.4491    87.987982    12187.679 
   17450     289.6394    227.90586   -3096.8621   -2666.0454    575.79553    12180.767 
   17500    310.12862    228.66685   -3122.2284   -2660.9356   -34.054167    12173.808 
   17550    293.63552    228.20504   -3106.8346    -2670.074    489.45807    12166.591 
   17600    293.64459    228.18037   -3106.0124   -2669.2383    593.50706    12159.321 
   17650     310.8267    228.71607   -3123.8691    -2661.538    195.43133    12152.058 
   17700    317.04667    228.92958   -3130.9859    -2659.403    138.17085    12144.614 
   17750    315.49082    228.96815   -3132.2717   -2663.0031    238.99362    12136.959 
   17800    313.79989    228.87458   -3129.1527   -2662.3992    448.34588    12129.134 
   17850    300.92126    228.47257   -3115.7524   -2668.1548    933.89026    12121.264 
   17900    308.21146    228.71359   -3123.7865   -2665.3453      755.214    12113.546 
   17950     297.9679    228.33154   -3111.0515   -2667.8468    1069.7524    12105.976 
   18000    310.72145    228.80664   -3126.8881   -2664.7135    692.26045    12098.637 
   18050    317.01064    223.96974   -3132.3248   -2660.7955    532.19995    12091.384 
   18100    305.42209    223.66543    -3122.181   -2667.8888    834.78535    12084.148 
   18150     320.4172    224.20902   -3140.3005   -2663.7042    457.81529    12077.002 
   18200    304.63988    223.67016   -3122.3385   -2669.2098    1140.7264    12069.852 
   18250    308.12956    223.78047   -3126.0156   -2667.6962    1243.4431     12062.96 
   18300    322.40988     224.2092   -3140.3068   -2660.7465    913.68478    12056.415 
   18350    304.02234    223.59976   -3119.9921    -2667.782    1501.3589    12050.124 
   18400    320.56965    224.07091   -3135.6971    -2658.874    1168.0244    12044.285 
   18450    313.02045    223.89343   -3129.7811   -2664.1869    1350.6636    12038.811 
   18500    315.53822    224.06128    -3135.376   -2666.0368    1255.9054    12033.722 
   18550    307.56451    223.78259   -3126.0864   -2668.6075    1516.3067    12029.041 
   18600    305.53392    223.78506   -3126.1687   -2671.7102    1688.2094    12024.879 
   18650    325.56474    224.51712   -3150.5706   -2666.3177    1117.1384    12021.295 
   18700    328.62853    224.61056   -3153.6853   -2664.8753    963.78363    12018.046 
   18750    315.56513    224.25106    -3141.702   -2672.3228    1391.9694    12015.066 
   18800     299.0963    223.78705   -3126.2351    -2681.352    1874.6282    12012.573 
   18850    314.07731     224.2212   -3140.7066   -2673.5404     1450.859    12010.738 
   18900    298.43544    223.74964   -3124.9879   -2681.0878    1840.9881    12009.493 
   18950    316.39472     224.5242   -3150.8065   -2680.1934    1184.8711    12008.918 
   19000    314.93107    224.45663   -3148.5544   -2680.1183    1177.5126    12008.765 
   19050    306.64763     224.1773   -3139.2433   -2683.1282    1401.5164    12009.013 
   19100     325.9664      224.754   -3158.4666   -2673.6163    792.01761    12009.708 
   19150    312.70081    224.35527   -3145.1757    -2680.057    1182.9606     12010.64 
   19200    299.87716    223.99039   -3133.0129   -2686.9684    1565.1528    12011.976 
   19250    299.67069    224.04386   -3134.7954   -2689.0579    1471.5443    12013.913 
   19300    311.50211    224.44218   -3148.0727    -2684.737    1044.6808    12016.418 
   19350    323.42576    224.84931   -3161.6435   -2680.5722    668.74056    12019.268 
   19400    310.23371    224.42976   -3147.6586   -2686.2094     1032.844    12022.308 
   19450    294.75393    223.97711   -3132.5704   -2694.1463    1419.7548    12025.682 
   19500    288.41529    223.84527   -3128.1757   -2699.1798    1517.9889    12029.615 
   19550    303.12052    224.39575   -3146.5248    -2695.656    1024.5411    12034.159 
   19600    303.94738    224.28456   -3142.8188   -2690.7201    1014.3629    12039.106 
   19650    305.83466    224.34603   -3144.8677   -2689.9619    943.88929    12044.389 
   19700    286.61984    223.84063    -3128.021   -2701.6957    1229.2082    12050.034 
   19750    297.31637     224.1865   -3139.5501   -2697.3146    749.41934    12056.128 
   19800    284.96717    223.71882   -3123.9605   -2700.0935    1050.0094    12062.521 
   19850    295.58939    224.11567   -3137.1891   -2697.5223    547.09768    12069.283 
   19900    308.81294       224.53        -3151   -2691.6641    71.299809    12076.188 
   19950    299.35879    224.26659   -3142.2196   -2696.9461    361.57262    12083.014 
   20000    305.29802    224.40622    -3146.874   -2692.7664    176.70867     12089.85 
   20050    303.20264    229.39408   -3146.4692   -2695.4783    146.23434    12096.643 
   20100    289.57414    228.95368   -3131.7893   -2701.0697    507.83339    12103.385 
   20150    290.26414    228.96041   -3132.0137   -2700.2677    424.65492    12110.246 
   20200    293.32636    229.00978   -3133.6593   -2697.3586     221.4838    12117.199 
   20250    296.98566    229.12899   -3137.6332   -2695.8895    49.569163    12124.126 
   20300    305.71555    229.41225    -3147.075   -2692.3462    -268.4623    12130.933 
   20350    298.33536    229.09071    -3136.357   -2692.6058   -99.941138    12137.483 
   20400    298.35405    229.14034   -3138.0114   -2694.2323   -107.63871    12143.804 
   20450    284.70344    228.57024   -3119.0082   -2695.5334    279.63993    12149.943 
   20500    297.75365    229.07311   -3135.7702   -2692.8842   -287.25125    12156.013 
   20550    297.05689    229.06653   -3135.5509   -2693.7013   -402.75743    12161.815 
   20600    280.18985    228.49017    -3116.339   -2699.5778    102.98742    12167.273 
   20650    279.25213    228.45397   -3115.1324    -2699.766    212.66775    12172.615 
   20700    264.84391    227.89461    -3096.487   -2702.5518    681.26511    12177.953 
   20750    288.71034    228.64611   -3121.5368   -2692.1021   -169.93702    12183.443 
   20800    295.81866    228.98499   -3132.8329    -2692.825   -650.15295    12188.718 
   20850    293.47632    228.93156   -3131.0521   -2694.5284    -627.6488    12193.492 
   20900    281.62064       228.53   -3117.6667   -2698.7773   -234.34929    12197.771 
   20950    274.17302    228.14439   -3104.8128   -2697.0012   -27.002544    12201.747 
   21000    291.91678    228.82301   -3127.4337   -2693.2296   -718.85502    12205.499 
   21050    295.75836    233.84748   -3128.2493   -2688.3311   -862.83602    12208.717 
   21100    296.16999    233.82753   -3127.5844   -2687.0539   -843.86477    12211.275 
   21150     282.8312    233.40942   -3113.6474   -2692.9574   -471.16761    12213.227 
   21200    287.81401    233.50775   -3116.9251   -2688.8235   -453.36214    12214.724 
   21250    273.91071    232.98115   -3099.3717   -2691.9503    78.794315    12215.837 
   21300    291.27502    233.53965   -3117.9883   -2684.7388   -405.65225     12216.75 
   21350    289.48777    233.46279   -3115.4263   -2684.8352   -262.27547    12217.288 
   21400    286.95292    233.42301   -3114.1003   -2687.2795   -160.25428    12217.493 
   21450    289.89119     233.3425   -3111.4166   -2680.2254   -197.34846    12217.413 
   21500    291.06541    233.32236   -3110.7453   -2677.8076   -180.91742    12217.012 
   21550    285.56907     233.1018   -3103.3934   -2678.6311   -9.6869653    12216.322 
   21600    289.77435    233.24444   -3108.1481   -2677.1308   -233.67948    12215.401 
   21650    299.40952    233.55084   -3118.3615   -2673.0125   -564.49144    12214.135 
   21700    286.35472    233.04735   -3101.5784   -2675.6474   -139.01331    12212.398 
   21750    294.71149    233.27915   -3109.3049   -2670.9439   -349.62849    12210.331 
   21800    307.64113    233.70544   -3123.5147   -2665.9218   -653.71555    12207.853 
   21850     306.0555    233.63769   -3121.2563   -2666.0219   -471.71532      12204.8 
   21900    287.42028    233.00942   -3100.3139   -2672.7981    273.89644    12201.296 
   21950    284.83777    232.94646   -3098.2154   -2674.5408    442.47152    12197.682 
   22000    279.69144    232.77849   -3092.6164   -2676.5966    562.60266    12194.095 
   22050    294.69623    233.20103   -3106.7012   -2668.3629    192.48001    12190.546 
   22100    295.84456    233.12788   -3104.2628   -2664.2164    327.75251    12186.907 
   22150    301.37556    233.30243    -3110.081   -2661.8077    289.43728    12183.221 
   22200    305.17528    233.45035   -3115.0116   -2661.0865    166.54627    12179.465 
   22250    299.96911    233.29237   -3109.7457   -2663.5644    400.57125    12175.587 
   22300    280.60273    232.61472   -3087.1574   -2669.7821    1092.7751    12171.735 
   22350    291.75488    232.97395   -3099.1316   -2665.1684    770.54835    12168.206 
   22400    312.56879    233.67681   -3122.5603   -2657.6379    155.13275    12164.857 
   22450    308.45403    233.47813   -3115.9378   -2657.1358    324.37758    12161.413 
   22500    309.69638    233.47678   -3115.8927   -2655.2428    396.59771    12157.905 
   22550    292.84059    232.97637   -3099.2123   -2663.6341      1019.51    12154.407 
   22600    300.42763    233.22176    -3107.392   -2660.5287    900.81706    12151.188 
   22650    311.88798    233.47644   -3115.8815   -2651.9717    591.74116     12148.24 
   22700    311.68081    233.51844   -3117.2813   -2653.6797    632.43543    12145.409 
   22750    295.15076    232.94515   -3098.1717   -2659.1573    1160.9711    12142.725 
   22800    304.83031    233.28969   -3109.6562   -2656.2442    884.64967    12140.387 
   22850    311.68865    233.38758   -3112.9195   -2649.3062    707.70425    12138.343 
   22900    330.33729    234.05254   -3135.0846    -2643.733    145.15903    12136.436 
   22950    318.17473    233.73022   -3124.3406   -2651.0798    426.81012    12134.419 
   23000    303.90327    233.21246   -3107.0819   -2655.0488    907.29964    12132.415 
   23050    311.53129    228.46579   -3115.5264   -2652.1472    725.71858    12130.646 
   23100    310.03542    228.43074   -3114.3579   -2653.2037    715.29768     12129.05 
   23150    294.33617    227.91464   -3097.1547   -2659.3519    1166.9374    12127.642 
   23200    304.22888    228.14802   -3104.9339   -2652.4165    927.70528    12126.606 
   23250    297.62933    227.98401    -3099.467   -2656.7659    1080.1843    12125.882 
   23300    313.01739    228.58634   -3119.5447   -2653.9551    660.30906    12125.467 
   23350    307.04831    228.33888   -3111.2958   -2654.5847    895.90081    12125.231 
   23400    300.27264    228.25835   -3108.6116   -2661.9788    1042.8121    12125.249 
   23450    301.35203    228.18394   -3106.1314   -2657.8931    1029.3008    12125.617 
   23500    309.74245    228.38985   -3112.9949   -2652.2764    785.73734    12126.317 
   23550    315.26657      228.583   -3119.4334   -2650.4982    592.85665    12127.227 
   23600    321.56106    228.83717   -3127.9056   -2649.6079    398.48385    12128.229 
   23650    310.31247    228.47001   -3115.6669   -2654.1007    698.58089    12129.265 
   23700    312.05491    228.53462   -3117.8207   -2653.6627    612.11132    12130.432 
   23750    319.19841    228.81687   -3127.2291   -2652.4457    392.93252      12131.7 
   23800    299.39674    228.09845   -3103.2816   -2657.9516    966.30765    12133.027 
   23850     301.2158    228.19344   -3106.4479   -2658.4123    894.91512    12134.611 
   23900    298.52574    228.23388   -3107.7961   -2663.7616    913.15771    12136.478 
   23950    304.00473    228.48476   -3116.1587   -2663.9747    619.58157    12138.614 
   24000    307.22968    228.57632   -3119.2107   -2662.2298    336.08436    12140.894 
   24050    306.86769    233.63023   -3121.0077   -2664.5652     275.6411    12143.168 
   24100    302.27936      233.325   -3110.8333   -2661.2156    529.26942    12145.423 
   24150    304.99903    233.48696    -3116.232    -2662.569    414.98546    12147.763 
   24200    307.36041     233.6258   -3120.8599   -2663.6846    347.20794    12150.134 
   24250    299.09803    233.28185   -3109.3951   -2664.5094    651.76375    12152.526 
   24300     292.1224    233.12047   -3104.0158   -2669.5059    837.07827    12155.075 
   24350    289.81761    233.10736   -3103.5787    -2672.497    813.64429    12157.886 
   24400    288.57589    233.10161    -3103.387   -2674.1523    762.43459    12160.968 
   24450    298.04653     233.4458   -3114.8599   -2671.5383    363.52467    12164.277 
   24500    305.75416    233.67374   -3122.4579   -2667.6717    60.839425    12167.612 
   24550    287.58709    233.07429   -3102.4763   -2674.7123    568.14422    12170.853 
   24600    298.09167    233.52777   -3117.5922   -2674.2035    153.50588    12174.163 
   24650    308.54624    233.84165   -3128.0549   -2669.1158    -192.4588    12177.376 
   24700    303.19353    233.63875   -3121.2917   -2670.3143   -70.507373     12180.34 
   24750     304.9544    233.71568   -3123.8561   -2670.2595   -212.51923    12183.059 
   24800    288.16623    233.21552    -3107.184   -2678.5586     176.4915    12185.503 
   24850    296.85916    233.52741   -3117.5803   -2676.0248   -166.39259    12187.821 
   24900    292.79543    233.28557    -3109.519    -2674.008    21.588208    12189.908 
   24950    294.01904    233.43932   -3114.6441   -2677.3131    92.996465    12191.803 
   25000    288.79242    233.21805   -3107.2682   -2677.7114    222.55716     12193.59 
   25050    298.83445    238.56503   -3118.8344   -2674.3409   -209.49372    12195.277 
   25100    283.18123     238.0986   -3103.2868   -2682.0762    175.78611    12196.738 
   25150    288.46811    238.33674   -3111.2247   -2682.1503    59.006595    12198.081 
   25200    282.04075    238.15778   -3105.2592    -2685.745    263.80866    12199.313 
   25250     292.7956    238.38822   -3112.9407   -2677.4294   -67.414092    12200.487 
   25300    288.98691    238.30239   -3110.0798   -2680.2336    -85.99566    12201.476 
   25350    280.82512    237.97386   -3099.1286   -2681.4225    86.664955    12202.266 
   25400    296.97377    238.50793   -3116.9311   -2675.2051   -338.35592    12202.884 
   25450    284.83505    238.19206   -3106.4021   -2682.7316  -0.64130294    12203.194 
   25500      289.665    238.45221   -3115.0736   -2684.2188   -196.86181    12203.283 
   25550     292.8136    238.49322   -3116.4407   -2680.9027   -250.55601    12203.102 
   25600    291.51148    238.39849    -3113.283   -2679.6818   -131.92733    12202.611 
   25650    272.79437    237.77936   -3092.6453   -2686.8843     440.5799    12201.892 
   25700      282.185    238.11548   -3103.8493   -2684.1205    75.388847    12201.176 
   25750    300.25117    238.75115   -3125.0384   -2678.4376   -466.15727    12200.314 
   25800    292.30437    238.48871   -3116.2902   -2681.5096   -127.39142    12199.062 
   25850    284.42292    238.19021   -3106.3404   -2683.2828    286.82505    12197.553 
   25900     294.4234    238.42142   -3114.0474   -2676.1149    153.29797    12195.987 
   25950    297.83384    238.54711    -3118.237   -2675.2317    50.611954    12194.323 
   26000    296.81757    238.45139   -3115.0463   -2673.5526    126.15126    12192.496 
   26050    295.69702    233.34806   -3111.6021   -2671.7752    271.57044    12190.537 
   26100    287.07399    233.06948    -3102.316   -2675.3152    517.09337    12188.539 
   26150    298.61622    233.35564   -3111.8547   -2667.6857    187.07553    12186.584 
   26200    297.50673    233.21912   -3107.3041   -2664.7854    274.73199    12184.551 
   26250    301.57926    233.28371    -3109.457   -2660.8807    261.31168    12182.453 
   26300    302.83077    233.27646   -3109.2155   -2658.7777    357.58832     12180.29 
   26350     302.6819    233.15512   -3105.1708   -2654.9544    503.45271    12178.118 
   26400    304.39786    233.18699    -3106.233   -2653.4643    435.17885    12176.007 
   26450    319.09554    233.58148   -3119.3827   -2644.7522    115.97798    12173.884 
   26500    295.08884    232.76481   -3092.1605   -2653.2382    1001.1995    12171.678 
   26550    288.84542     232.5198   -3083.9934   -2654.3578    1309.5877    12169.778 
   26600    304.69627    233.00892   -3100.2974   -2647.0848    882.00743    12168.356 
   26650    311.58004    233.09895   -3103.2983   -2639.8466    773.32647    12167.227 
   26700    318.77708     233.2734   -3109.1133   -2634.9566    542.10608    12166.286 
   26750    321.91509    233.30631   -3110.2103    -2631.386    449.45762    12165.431 
   26800    312.38797    232.94433   -3098.1443   -2633.4909    842.32425    12164.631 
   26850    316.05087    233.02291   -3100.7637    -2630.662    817.24711    12164.047 
   26900    316.30871    232.93376   -3097.7919   -2627.3066    859.95449    12163.699 
   26950    312.59867    232.86698   -3095.5659    -2630.599    936.63423    12163.597 
   27000    319.79452     233.1117   -3103.7234   -2628.0533    783.51835    12163.766 
   27050    317.32821    233.02637   -3100.8789   -2628.8773    912.76116    12164.159 
   27100    303.26886    232.46144   -3082.0479   -2630.9584    1389.1156    12164.877 
   27150    318.75335    232.94134   -3098.0448   -2623.9233    925.14901    12166.074 
   27200    320.26372    232.98795   -3099.5982   -2623.2302    850.11806    12167.589 
   27250    311.86132    232.77033   -3092.3442   -2628.4741    1085.2259    12169.378 
   27300    311.52008    232.81899   -3093.9664   -2630.6039    986.28603    12171.541 
   27350     323.2454    233.09472   -3103.1573   -2622.3543    668.36282    12174.023 
   27400    313.41286    232.68255   -3089.4185   -2623.2406    989.95105    12176.699 
   27450    317.16531    232.89356   -3096.4521   -2624.6928    720.52998    12179.671 
   27500    309.89167    232.67013   -3089.0043    -2628.064    828.07114    12182.858 
   27550    309.52361    232.77855   -3092.6182   -2632.2253    794.38728    12186.266 
   27600    315.26933    232.85989   -3095.3297   -2626.3905    704.51182    12189.913 
   27650    313.85094    232.77404    -3092.468   -2625.6385    697.81538    12193.779 
   27700    329.50821    233.31858   -3110.6194   -2620.5009    131.37034    12197.792 
   27750    320.36264    233.04693   -3101.5643   -2625.0492    371.26816    12201.716 
   27800    312.98154    232.73368   -3091.1228   -2625.5865    597.58718    12205.648 
   27850    309.66725    232.68188   -3089.3959   -2628.7894    557.62629    12209.701 
   27900    302.08468    232.46391   -3082.1305   -2632.8024     679.4171     12213.87 
   27950    307.40335    232.68815   -3089.6052    -2632.366    466.53176    12218.216 
   28000     312.7373    232.89511   -3096.5036   -2631.3305    326.55904     12222.63 
   28050    284.89569    236.99842   -3066.6141   -2642.8534    1064.0138    12227.107 
   28100    301.06537    237.53879   -3084.6262   -2636.8143    475.15721    12231.926 
   28150    310.06779     237.8626   -3095.4201   -2634.2178    152.40063    12236.858 
   28200    300.71204    237.60192   -3086.7306   -2639.4442    443.83712    12241.724 
   28250    294.96542    237.43239   -3081.0796   -2642.3409     528.0482    12246.679 
   28300    311.00855    238.00132   -3100.0439   -2637.4422   -147.89849    12251.706 
   28350    286.97076    237.20505   -3073.5018   -2646.6546    469.41276    12256.566 
   28400     296.6047    237.50546   -3083.5152   -2642.3382    141.84839    12261.465 
   28450    305.13363    237.83777   -3094.5922    -2640.729   -278.96291    12266.261 
   28500    292.61924    237.34702   -3078.2341   -2642.9852   -3.1727941    12270.785 
   28550    295.52323    237.54997   -3084.9991   -2645.4307    -105.7205    12275.098 
   28600    280.91069    237.09326   -3069.7755   -2651.9421    347.99285     12279.23 
   28650     296.6965    237.69904   -3089.9679   -2648.6543   -172.57872    12283.343 
   28700    296.42176    237.67771    -3089.257   -2648.3521   -203.19322    12287.229 
   28750    284.68157    237.27023   -3075.6744   -2652.2322    137.85773     12290.84 
   28800    283.64021    237.18292    -3072.764   -2650.8707    129.49874     12294.35 
   28850    301.25969     237.7637   -3092.1232   -2644.0222   -544.92707    12297.743 
   28900    299.45305    237.71354   -3090.4514   -2645.0377   -561.38235    12300.691 
   28950    275.17585    236.88141   -3062.7135   -2653.4103    162.93771    12303.189 
   29000    283.91488    237.19508   -3073.1694   -2650.8675    -152.4798    12305.548 
   29050    283.79962    237.30811   -3076.9369   -2654.8065   -298.37494    12307.666 
   29100     289.5627    237.46059   -3082.0196    -2651.317   -516.81098     12309.44 
   29150    303.15635    237.89654   -3096.5514   -2645.6293    -943.9727    12310.729 
   29200    294.69966    237.60458   -3086.8193   -2648.4759   -698.74777     12311.35 
   29250    287.54851    237.31115   -3077.0382   -2649.3316   -416.33733    12311.398 
   29300    282.46042    237.19533   -3073.1776   -2653.0391   -185.26075    12311.025 
   29350     287.4908    237.35076   -3078.3585   -2650.7377   -322.38018    12310.361 
   29400    297.66074    237.76503   -3092.1675   -2649.4197   -754.50966    12309.304 
   29450    287.84951    237.44116    -3081.372   -2653.2177   -412.25314     12307.68 
   29500    285.87982    237.39637   -3079.8789   -2654.6543   -218.76631    12305.633 
   29550    293.82054    237.68333   -3089.4443   -2652.4085   -288.31944    12303.256 
   29600    296.11584    237.69022   -3089.6738    -2649.224   -201.69695    12300.539 
   29650    290.26109    237.49437   -3083.1457   -2651.4043    15.939089    12297.524 
   29700    294.76285    237.63509   -3087.8365   -2649.3991   -192.73133    12294.298 
   29750    292.67295    237.55282   -3085.0941   -2649.7652   -169.60387    12290.786 
   29800     295.2522    237.58243   -3086.0811   -2646.9158    -176.7235    12286.982 
   29850    291.25877    237.42103   -3080.7009   -2647.4755   -91.397742    12282.881 
   29900    293.43431    237.51083   -3083.6943    -2647.233   -225.49298    12278.517 
   29950    299.65763      237.666   -3088.8668   -2643.1488   -321.65396    12273.828 
   30000    298.83142    237.62906   -3087.6354   -2643.1463   -206.71894    12268.773 
   30050    316.04602    233.30748   -3110.2494   -2640.1549   -701.88416    12263.341 
   30100    311.81172    233.08076   -3102.6919   -2638.8956   -474.73872    12257.347 
   30150    303.90383    232.83717   -3094.5722   -2642.5383   -43.847783    12250.877 
   30200    290.04301    232.35492   -3078.4975   -2647.0805    544.50637    12244.162 
   30250    297.78252    232.58846    -3086.282   -2643.3531    471.66954      12237.5 
   30300     304.1686    232.80712   -3093.5707    -2641.143    318.04712    12230.892 
   30350    308.76128    232.85489    -3095.163    -2635.904    233.18685    12224.234 
   30400    309.07611    232.85582   -3095.1939   -2635.4666    298.96128     12217.49 
   30450    304.59729    232.70487   -3090.1622   -2637.0968    597.02083    12210.698 
   30500    303.11526    232.51396   -3083.7985   -2632.9375    862.42122    12204.004 
   30550     319.1658    233.02989   -3100.9964   -2626.2614    452.66589    12197.531 
   30600    325.66342    233.23467   -3107.8223   -2623.4226    294.88045    12191.079 
   30650    314.26239    232.83716   -3094.5721   -2627.1306    705.65897    12184.599 
   30700    322.63337     233.0148   -3100.4932   -2620.6005    605.51636    12178.234 
   30750    302.04559    232.41248    -3080.416   -2631.1461    1365.7102    12172.015 
   30800    308.20216    232.53824   -3084.6079   -2626.1805    1428.4363    12166.268 
   30850    318.33823    232.74947   -3091.6491   -2618.1451     1256.522    12161.081 
   30900    319.97044    232.87241   -3095.7471   -2619.8153    1172.9461    12156.359 
   30950    311.05792    232.60979   -3086.9928   -2624.3178    1460.2487    12152.058 
   31000    315.30811    232.72096   -3090.6987   -2621.7018    1407.0352    12148.327 
   31050    327.13071    233.02465   -3100.8218   -2614.2396    1128.1164    12145.123 
   31100    324.39886    232.83186   -3094.3952   -2611.8765     1246.968    12142.326 
   31150     315.8415    232.46897   -3082.2991   -2612.5088    1540.2269    12139.999 
   31200    331.42699    232.95671   -3098.5571   -2605.5845    1174.0751    12138.228 
   31250     304.1707     232.0806   -3069.3533   -2616.9225    2055.0195     12136.95 
   31300    315.33183    232.36567   -3078.8557   -2609.8235    1858.1126    12136.489 
   31350    314.80706    232.36677   -3078.8922   -2610.6405     1829.462    12136.847 
   31400    322.80343    232.60201   -3086.7337   -2606.5881    1564.8766    12137.958 
   31450    319.44832     232.5113   -3083.7101   -2608.5549    1653.9709    12139.724 
   31500    322.20922    232.49381   -3083.1271   -2603.8653    1588.8845    12142.166 
   31550    342.86199    233.21797   -3107.2658   -2597.2846    855.44595    12145.219 
   31600    344.23794    233.28943   -3109.6475   -2597.6197     834.6802    12148.545 
   31650    320.75305    232.50838   -3083.6126   -2606.5168    1577.9478    12152.167 
   31700    330.23773     232.8354   -3094.5134   -2603.3098    1285.1435    12156.367 
   31750    321.51273    232.50733   -3083.5775   -2605.3517    1528.7489     12161.09 
   31800    311.08459    232.17359   -3072.4531   -2609.7383     1739.029    12166.449 
   31850    308.16705      232.068   -3068.9333   -2610.5582     1650.255    12172.544 
   31900     320.6297    232.56064   -3085.3546   -2608.4422    1095.7233    12179.314 
   31950    316.46636    232.50394   -3083.4647    -2612.745    1083.2098    12186.513 
   32000    310.17222    232.34322   -3078.1073   -2616.7497     1190.473    12194.132 
   32050    323.92231     237.8335   -3094.4501   -2612.6402    636.45032    12202.186 
   32100    315.48362    237.65735   -3088.5782   -2619.3203    721.70167    12210.433 
   32150     296.9654    236.99165   -3066.3885    -2624.675    1159.9483    12218.923 
   32200    304.82794    237.26357   -3075.4522   -2622.0438    836.62583    12227.841 
   32250    306.56542    237.36684   -3078.8947   -2622.9019    633.32719    12237.063 
   32300    301.50331    237.23992    -3074.664   -2626.2007    536.84773    12246.465 
   32350    303.96118    237.36659   -3078.8864   -2626.7672    233.72444    12255.997 
   32400    295.80257    237.22115   -3074.0383   -2634.0544    298.16678     12265.52 
   32450     289.3425    237.05365   -3068.4551   -2638.0801    321.93621    12275.025 
   32500    300.72541    237.63388    -3087.796   -2640.4897   -247.28753    12284.518 
   32550    291.03738    237.26169   -3075.3896   -2642.4936   -80.006187     12293.77 
   32600    290.62856    237.25898   -3075.2993   -2643.0113   -174.95947    12302.791 
   32650    299.06186     237.6581   -3088.6033   -2643.7715    -596.3965    12311.542 
   32700    303.34532    237.88738   -3096.2461   -2645.0429   -837.57342    12319.803 
   32750    287.33222    237.25715   -3075.2385   -2647.8536   -446.66947    12327.467 
   32800    285.10768     237.2777   -3075.9233   -2651.8473     -505.418    12334.679 
   32850    284.88091     237.2683     -3075.61   -2651.8712   -572.93872    12341.451 
   32900    294.00347    237.52504   -3084.1681   -2646.8602   -870.86257     12347.71 
   32950    291.19523    237.50667   -3083.5556   -2650.4247   -880.49907    12353.337 
   33000    294.38513    237.61845   -3087.2818   -2649.4063   -999.01476    12358.276 
   33050    290.31004    242.48018   -3082.6727   -2650.8585   -941.86377    12362.489 
   33100    290.08517    242.56076   -3085.3586   -2653.8789   -998.08933    12366.003 
   33150    277.00546    241.98995   -3066.3317    -2654.307   -563.44929    12368.825 
   33200      286.395    242.36656   -3078.8853   -2652.8944   -894.76354    12371.117 
   33250    288.43074     242.5188   -3083.9599    -2654.941   -1083.9427    12372.763 
   33300    291.22313     242.6099   -3086.9968   -2653.8244   -1267.4554    12373.626 
   33350    298.88162    242.82835   -3094.2782   -2649.7145   -1543.7258    12373.602 
   33400    290.04122    242.43178   -3081.0595   -2649.6451   -1176.7442    12372.577 
   33450    279.53486     242.1006     -3070.02   -2654.2331   -788.16284    12370.703 
   33500    270.48523     241.8822   -3062.7399   -2660.4136   -489.72299    12368.217 
   33550    275.09208    241.99706   -3066.5688   -2657.3902   -587.82077    12365.282 
   33600    287.15781    242.33014   -3077.6712   -2650.5457   -903.72511    12361.836 
   33650    281.56533     242.0844   -3069.4798   -2650.6727   -701.66528    12357.739 
   33700    289.97097    242.37274   -3079.0913   -2647.7814   -910.27189    12353.041 
   33750    276.92462    241.96175   -3065.3918   -2653.4874   -496.59197    12347.707 
   33800    270.39165     241.7114   -3057.0468   -2654.8597   -242.69007    12341.915 
   33850    297.59557    242.62917   -3087.6389   -2644.9881   -1051.9279     12335.75 
   33900    311.86657    243.17763    -3105.921   -2642.0431    -1485.617    12328.843 
   33950    291.56987    242.44836   -3081.6121    -2647.924   -647.84676    12320.993 
   34000    287.17311    242.23697   -3074.5655   -2647.4173   -175.63905    12312.582 
   34050    282.26932    242.04787   -3068.2624   -2648.4082    132.80471    12303.904 
   34100     287.2455    242.31108   -3077.0359     -2649.78    30.604427    12295.098 
   34150    292.69141    242.51453   -3083.8176   -2648.4613   -91.670902    12286.149 
   34200    298.72224    242.71113   -3090.3711   -2646.0444   -164.11646    12276.969 
   34250    296.69062    242.58501   -3086.1669    -2644.862    75.355118    12267.549 
   34300    295.09255    242.43063   -3081.0209   -2642.0931    317.58618    12257.991 
   34350    291.54835    242.29976   -3076.6587   -2643.0026    564.59594    12248.438 
   34400    296.78926    242.48849   -3082.9496    -2641.498    448.82902    12239.017 
   34450    304.51985    242.82682   -3094.2274   -2641.2772    243.18413    12229.656 
   34500    295.71696    242.43127   -3081.0424   -2641.1858    703.32679    12220.299 
   34550      298.833    242.53993   -3084.6642   -2640.1728    724.84526    12211.147 
   34600    327.23992    243.48964   -3116.3214   -2629.5768   -63.019959     12202.16 
   34650    307.83786    242.74286   -3091.4288   -2633.5433    647.57345     12193.05 
   34700    297.58751     242.3724   -3079.0799   -2636.4411    1051.4136    12184.101 
   34750    301.83295    242.56844   -3085.6146    -2636.661    1034.3578    12175.524 
   34800    303.16076    242.55686   -3085.2287   -2634.3001    1147.6717    12167.357 
   34850    307.12188    242.80308   -3093.4361   -2636.6155    1092.1563    12159.643 
   34900    322.64606    243.37543   -3112.5144   -2632.6029     782.5208    12152.319 
   34950    310.21326    242.92839   -3097.6131   -2636.1944    1375.4648    12145.306 
   35000    313.06448    242.97292   -3099.0973   -2633.4376     1476.673    12138.827 
   35050    298.59846    242.44166   -3081.3888   -2637.2462    2002.0439    12132.999 
   35100    297.06925     242.3022   -3076.7399   -2634.8719    2078.4677    12128.068 
   35150    304.61896    242.48694   -3082.8981   -2629.8005    1848.5435    12124.083 
   35200    313.04323    242.81165   -3093.7217   -2628.0937    1614.5541     12120.91 
   35250    321.73694    243.18507   -3106.1691   -2627.6098    1425.3223    12118.436 
   35300    307.35622    242.62604   -3087.5346   -2630.3656    1880.2824     12116.59 
   35350    310.47332    242.69738   -3089.9128   -2628.1073    1732.2493    12115.537 
   35400    306.77389    242.55644   -3085.2146   -2628.9117    1714.3539    12115.268 
   35450    322.61692    243.13512   -3104.5041   -2624.6359    1212.4879    12115.714 
   35500    316.07247    242.94486   -3098.1621   -2628.0283    1488.0258    12116.672 
   35550    303.25592    242.53574   -3084.5246   -2633.4544    1909.2583    12118.254 
   35600      295.836    242.26765   -3075.5882   -2635.5546    2105.7772    12120.691 
   35650    311.53806    242.92882   -3097.6274   -2634.2381    1547.6754    12124.046 
   35700    314.71885    243.01819   -3100.6063   -2632.4859    1449.7649    12128.094 
   35750    313.27373    242.92788   -3097.5962   -2631.6252     1397.422    12132.749 
   35800    310.33203    242.78249   -3092.7498   -2631.1544    1325.1976    12137.982 
   35850    315.28889     242.9447   -3098.1568   -2629.1885    1067.3377    12143.749 
   35900    311.26755    242.80507   -3093.5025   -2630.5156    1133.6178    12149.944 
   35950    310.73428    242.84164   -3094.7212   -2632.5275    1057.1184     12156.58 
   36000    325.96277    243.45518   -3115.1726   -2630.3277    528.25797    12163.584 
   36050    310.99562    237.91316   -3097.1054   -2634.5229    992.31951    12170.749 
   36100    306.42267    237.79842   -3093.2807   -2637.5002    1032.6322    12178.229 
   36150    294.68292     237.4002   -3080.0067   -2641.6882     1192.686    12186.099 
   36200     315.2555     238.1572     -3105.24   -2636.3213    342.20208    12194.364 
   36250     309.2829    237.88354   -3096.1179    -2636.083     445.6588    12202.683 
   36300    298.67552    237.64202   -3088.0675   -2643.8103     672.4051    12211.056 
   36350    305.39966    238.02225   -3100.7415   -2646.4827    233.23369    12219.569 
   36400    295.71751    237.74386    -3091.462   -2651.6046    284.67863    12228.061 
   36450    300.25894    237.91327   -3097.1088   -2650.4964    80.959038    12236.505 
   36500    295.84863    237.72739    -3090.913   -2650.8606    165.98577    12244.829 
   36550    297.97114    237.90965   -3096.9885    -2653.779    -170.6538    12253.046 
   36600    298.02717    238.04599   -3101.5329   -2658.2401   -387.28125    12260.997 
   36650    282.24256    237.45473   -3081.8245   -2662.0101    2.3448629    12268.585 
   36700     292.4718    237.83197   -3094.3991   -2659.3695   -418.56442    12275.929 
   36750    279.85708    237.35534   -3078.5112    -2662.245   -150.03577    12282.925 
   36800    296.48262    238.04732   -3101.5772   -2660.5818   -800.05775    12289.589 
   36850    291.97481    237.89187   -3096.3958   -2662.1054   -723.59688    12295.657 
   36900    280.46136    237.48604   -3082.8679   -2665.7029   -419.80353    12301.157 
   36950    281.08324    237.49715   -3083.2383   -2665.1483   -548.71062    12306.227 
   37000    291.80014    237.96835   -3098.9451   -2664.9145   -983.27473     12310.79 
   37050    287.52746    232.79545   -3093.1818   -2665.5065    -919.2295    12314.644 
   37100    295.02877    233.08724   -3102.9081   -2664.0752   -1163.0362    12317.768 
   37150    288.37741     232.7691   -3092.3035   -2663.3639   -981.61105    12320.072 
   37200     281.1078    232.64785   -3088.2617   -2670.1352   -827.95144    12321.632 
   37250    286.36691     232.7912     -3093.04    -2667.091   -987.07105    12322.526 
   37300    286.87904    232.76803   -3092.2676   -2665.5567   -1033.1662    12322.673 
   37350     290.9991    232.85602   -3095.2008   -2662.3616   -1197.7633    12322.036 
   37400    282.20995    232.58616   -3086.2052   -2666.4393   -950.22953    12320.562 
   37450    275.84691    232.40539   -3080.1795   -2669.8781   -729.95221    12318.358 
   37500     291.3874    232.95972   -3098.6573   -2665.2406   -1208.0073    12315.517 
   37550    292.75071    233.04248   -3101.4159   -2665.9714   -1188.2127    12311.836 
   37600    282.67889     232.6885   -3089.6167   -2669.1533   -746.04897     12307.32 
   37650    278.66128    232.57704   -3085.9013   -2671.4138   -619.67947    12302.202 
   37700     291.4197    232.96962   -3098.9873   -2665.5226   -934.84362    12296.513 
   37750     293.2941    233.00821   -3100.2735   -2664.0208   -912.71756    12290.137 
   37800    298.70453    233.21747   -3107.2491   -2662.9488   -1010.5304    12283.052 
   37850    296.52989    233.20779   -3106.9263   -2665.8606   -964.60799    12275.222 
   37900    285.22183    232.79913   -3093.3045   -2669.0586   -572.90012    12266.684 
   37950    286.54191    232.76645   -3092.2151   -2666.0057   -401.11084     12257.63 
   38000    292.18269    232.99694    -3099.898   -2665.2983   -372.70777    12248.167 
   38050    292.17038    238.01074   -3100.3581   -2665.7768   -174.02112    12238.325 
   38100    292.71609    238.07932   -3102.6439   -2667.2509   -59.427165    12228.211 
   38150    270.29735    237.31378   -3077.1261   -2675.0793    748.02509    12217.958 
   38200    283.92249    237.77922   -3092.6408   -2670.3276    443.18318    12207.894 
   38250     300.1904    238.30013   -3110.0043   -2663.4938   -28.327687    12197.905 
   38300    299.03718    238.31657   -3110.5524   -2665.7573    56.813304     12187.76 
   38350    296.54106    238.13609   -3104.5364   -2663.4541    296.79738    12177.494 
   38400    309.51405    238.51678    -3117.226   -2656.8473    73.018262    12167.203 
   38450    290.85595    237.96697   -3098.8989   -2666.2727    804.03604    12156.847 
   38500     295.8709    238.17463   -3105.8209   -2665.7353    845.52515     12146.73 
   38550    308.06077    238.60314   -3120.1048   -2661.8878    527.03947    12136.892 
   38600    296.97691    238.29409    -3109.803   -2668.0724    963.10417    12127.218 
   38650    296.90414    238.24064   -3108.0212   -2666.3988    1179.7911    12117.894 
   38700     298.0078    238.37899    -3112.633    -2669.369    1222.0146    12109.015 
   38750    298.90407    238.39959   -3113.3196   -2668.7225    1261.1103    12100.623 
   38800    302.01762      238.424   -3114.1332   -2664.9049    1281.8021     12092.76 
   38850    304.43911    238.53144   -3117.7147   -2664.8846    1287.6563    12085.421 
   38900    297.54671    238.28153   -3109.3844   -2666.8062    1519.9706    12078.614 
   38950    313.03212    238.73968   -3124.6559   -2659.0444    1167.9137    12072.406 
   39000    309.43884    238.60213   -3120.0711   -2659.8043    1436.1358    12066.687 
   39050    301.67609    238.35704   -3111.9013    -2663.181     1724.946    12061.576 
   39100    305.27388    238.48437   -3116.1456   -2662.0739    1590.5797    12057.189 
   39150    306.41745    238.47496    -3115.832   -2660.0593    1612.4398    12053.474 
   39200    311.37393    238.69305   -3123.1017   -2659.9565    1431.2351    12050.438 
   39250    321.89785     239.0887   -3136.2902   -2657.4915    1138.2066    12047.966 
   39300    298.92393    238.29746   -3109.9152   -2665.2885    1875.5951    12045.982 
   39350    309.97007    238.69904   -3123.3013   -2662.2443    1584.5768    12044.734 
   39400    297.11492    238.25818   -3108.6058   -2666.6699    1959.7534     12044.19 
   39450    304.07257    238.50058   -3116.6858   -2664.4009    1679.3778    12044.465 
   39500    312.70771    238.88295   -3129.4318   -2664.3028    1357.0902    12045.449 
   39550     310.4583    238.81811   -3127.2703   -2665.4871    1474.1264    12046.988 
   39600    311.90051    238.96162    -3132.054   -2668.1256    1453.1538    12049.107 
   39650    294.93554    238.30409   -3110.1362   -2671.4419    1953.2678    12051.831 
   39700    308.41985    238.79457   -3126.4856   -2667.7345    1398.1082    12055.332 
   39750    303.79889    238.61179   -3120.3931   -2668.5153     1426.395    12059.433 
   39800    296.64502    238.30104   -3110.0347   -2668.7977    1538.9601    12064.108 
   39850    309.34696    238.81702   -3127.2338   -2667.1037    1058.0253    12069.373 
   39900    298.09833    238.42495   -3114.1651   -2670.7664     1331.289    12075.071 
   39950    314.02845    238.99445   -3133.1485    -2666.055     754.1715    12081.218 
   40000    296.73692    238.36652   -3112.2174   -2670.8437    1194.0645    12087.629 
   40050    295.13294    238.36731   -3112.2437   -2673.2558    1199.6667    12094.443 
   40100    295.24068     238.3335   -3111.1166   -2671.9685    1160.2003    12101.718 
   40150    287.91292    238.13389    -3104.463   -2676.2144    1211.2371    12109.433 
   40200    298.78824    238.43562   -3114.5207   -2670.0958    655.39628    12117.574 
   40250    311.99729    238.92195   -3130.7316   -2666.6593    79.761663    12125.874 
   40300    308.29714    238.76233   -3125.4111   -2666.8425    141.15738    12134.046 
   40350    303.10556    238.67392   -3122.4639   -2671.6174    246.61712    12142.101 
   40400    303.11818    238.73996   -3124.6655   -2673.8002    171.30982    12150.075 
   40450    292.79591    238.35726   -3111.9087    -2676.397    405.77833    12157.951 
   40500     283.7541    238.06336    -3102.112   -2680.0493    637.06796    12165.869 
   40550    295.55723    238.59246   -3119.7486   -2680.1296    145.88172    12173.915 
   40600    295.18164     238.5627   -3118.7568   -2679.6965    82.440776    12181.868 
   40650    291.91469     238.4535   -3115.1166   -2680.9156      68.7088     12189.67 
   40700    283.26848    238.15652   -3105.2172   -2683.8768    158.73464    12197.314 
   40750    289.17501     238.3536   -3111.7868   -2681.6609   -156.55938    12204.819 
   40800    282.95754    238.11475   -3103.8249    -2682.947   -70.773447    12212.086 
   40850    288.13912    238.26984   -3108.9946   -2680.4095   -296.82768      12219.1 
   40900    298.54087    238.65923   -3121.9742   -2677.9173   -761.83928    12225.748 
   40950     286.7213    238.17369   -3105.7897   -2679.3135   -420.38865    12231.808 
   41000    271.58861    237.63415   -3087.8049   -2683.8374    34.293704    12237.461 
   41050    287.56518    238.22255   -3107.4184    -2679.687   -550.98729    12242.897 
   41100    279.50092    237.92618   -3097.5392   -2681.8028   -333.84393    12247.878 
   41150    272.94029    237.67297   -3089.0989   -2683.1209   -62.041858      12252.5 
   41200    288.94987    238.26523   -3108.8411     -2679.05   -591.93512    12256.842 
   41250    285.80553    238.13301   -3104.4335   -2679.3195   -612.22798    12260.708 
   41300    285.77557    238.04901   -3101.6338   -2676.5643   -615.56222    12264.051 
   41350    286.09362    238.14028    -3104.676   -2679.1334   -577.88292    12266.854 
   41400    278.81648    237.82942   -3094.3141   -2679.5957   -297.00129    12269.183 
   41450    287.74507     238.1427   -3104.7565   -2676.7576   -637.61855    12271.128 
   41500    297.28883    238.38262    -3112.754   -2670.5594   -1014.9418    12272.543 
   41550     283.6749    237.91343   -3097.1144   -2675.1695   -610.68694    12273.262 
   41600    282.71858    237.88158   -3096.0525   -2675.5301   -500.34253    12273.437 
   41650    290.00269    238.10393   -3103.4644   -2672.1074   -618.84187    12273.139 
   41700    285.08964    237.94094   -3098.0314   -2673.9822   -375.86194    12272.349 
   41750    287.96389     237.9891   -3099.6365   -2671.3121   -394.26528    12271.162 
   41800    286.61472    237.79576   -3093.1918   -2666.8742   -262.93492     12269.59 
   41850    293.04101    238.03392   -3101.1308   -2665.2545   -427.75525    12267.668 
   41900    293.65501    237.85705   -3095.2349   -2658.4453   -358.59371    12265.353 
   41950    299.66354     237.9663   -3098.8767   -2653.1499    -514.6268    12262.638 
   42000    295.73881    237.71915   -3090.6384   -2650.7493   -364.59712     12259.48 
   42050    302.51119    238.05841   -3101.9469   -2651.9845   -465.95572     12255.91 
   42100    293.34139    237.71329   -3090.4431     -2654.12    61.888861    12251.946 
   42150    289.76117    237.52045    -3084.015   -2653.0173    327.34123     12247.83 
   42200    310.51724    238.19232   -3106.4106   -2644.5397   -174.17206     12243.67 
   42250    287.53921    237.26965    -3075.655   -2647.9622    655.12877    12239.318 
   42300    279.61927    236.90194   -3063.3979   -2647.4854    997.70452    12235.129 
   42350    301.05527    237.56474   -3085.4913   -2637.6944    427.13395    12231.265 
   42400     298.7831    237.45769    -3081.923   -2637.5058    540.20327    12227.506 
   42450    319.37001    238.14273   -3104.7576   -2629.7189    14.690416    12223.813 
   42500    312.54767    237.89227    -3096.409    -2631.518    349.26661    12219.992 
   42550    306.07209    237.61001   -3087.0004   -2631.7414    583.26177    12216.175 
   42600    307.12496    237.64591   -3088.1969   -2631.3718    476.96915    12212.474 
   42650    312.33516    237.84491   -3094.8303   -2630.2555     380.5748    12208.845 
   42700    306.58452    237.69188   -3089.7293    -2633.708    593.44687    12205.268 
   42750    313.06268    237.84071   -3094.6904   -2629.0334    535.01432    12201.807 
   42800    307.98933    237.70664   -3090.2215   -2632.1107    843.62987    12198.465 
   42850    305.17671    237.51714   -3083.9046   -2629.9773     988.2191    12195.387 
   42900    323.00789    238.09954   -3103.3179   -2622.8682    417.87199    12192.626 
   42950     304.0811    237.44908   -3081.6361   -2629.3385    1038.6769     12189.98 
   43000    302.69245    237.40855   -3080.2851   -2630.0531     1149.949    12187.684 
   43050    306.33166    237.49125   -3083.0415   -2627.3964    1030.5074    12185.823 
   43100    307.86954    237.51318   -3083.7727   -2625.8401    979.41231    12184.321 
   43150    314.65577    237.73005   -3091.0018   -2622.9751    757.09143    12183.181 
   43200    337.61015    238.61064   -3120.3545    -2618.185    138.95192     12182.22 
   43250     310.0492    237.62497    -3087.499   -2626.3243     1128.719    12181.235 
   43300    303.19715    237.32392   -3077.4641   -2626.4813    1390.1872     12180.62 
   43350    300.86978    237.30528   -3076.8427   -2629.3217    1419.8178    12180.565 
   43400    314.92393    237.72383   -3090.7944   -2622.3689    1062.6752    12181.082 
   43450    309.97591     237.7102   -3090.3401   -2629.2744    1124.8732    12181.993 
   43500    294.46612    237.12784    -3070.928    -2632.932    1573.2644    12183.342 
   43550    304.05453    237.40732   -3080.2442   -2627.9861     1184.889     12185.32 
   43600    318.58639    237.94225    -3098.075   -2624.2019     685.8493    12187.741 
   43650    306.47229    237.52588   -3084.1961   -2628.3418    1058.1543    12190.382 
   43700     308.9711    237.84884   -3094.9614   -2635.3903    868.70118    12193.359 
   43750    299.08031    237.43899   -3081.2998   -2636.4405    1086.7298    12196.657 
   43800    314.30978    238.05575   -3101.8584   -2634.3464    518.10512    12200.304 
   43850    306.56494    237.78289    -3092.763   -2636.7709    709.30889    12204.092 
   43900    296.64491    237.45402   -3081.8006   -2640.5638     945.6876     12208.07 
   43950    315.28318    238.13147   -3104.3824   -2635.4225    254.96461    12212.301 
   44000    311.85627    238.05819   -3101.9396   -2638.0771    307.01475    12216.516 
[...]
   89400    298.10861    232.99366   -3099.7887   -2656.3747   -142.49206    12220.517 
   89450    299.94489    233.07482   -3102.4939   -2656.3486   -155.18191    12218.853 
   89500    300.11164    233.02326   -3100.7754    -2654.382   -7.8529864     12216.92 
   89550    298.47552    232.86208   -3095.4026   -2651.4429    136.77547    12214.799 
   89600    304.20585    233.07838   -3102.6128   -2650.1296   -16.211615    12212.535 
   89650     307.0474    233.26663   -3108.8876   -2652.1779   -103.84877    12210.067 
   89700    302.35088    233.01326   -3100.4421   -2650.7181    206.25428    12207.372 
   89750    301.43188    232.94346   -3098.1154   -2649.7583    352.59118    12204.578 
   89800    302.48194    233.01356    -3100.452   -2650.5331    300.73508    12201.767 
   89850    308.61962     233.2293   -3107.6433    -2648.595    178.57369    12198.907 
   89900    304.49491    233.00422   -3100.1407   -2647.2276    436.52276    12195.972 
   89950    303.87729     233.0127   -3100.4233   -2648.4289    611.00545    12193.063 
   90000    300.05419    232.82421   -3094.1402   -2647.8324     758.0047    12190.302 
   90050    296.17988    232.64624   -3088.2081    -2647.663    827.86655    12187.766 
   90100    311.70104    233.11257   -3103.7523   -2640.1206    374.34876    12185.452 
   90150    324.45701     233.4855   -3116.1833   -2633.5781   -75.320019    12183.143 
   90200    319.29859    233.26892   -3108.9641   -2634.0316    176.50644    12180.614 
   90250    302.97636    232.73224   -3091.0748   -2640.4204    888.71198    12178.006 
   90300    309.38203    233.01999   -3100.6662   -2640.4838    762.98265     12175.63 
   90350    317.34205    233.31644   -3110.5479   -2638.5257    559.88289    12173.444 
   90400    299.66746    232.68762   -3089.5872   -2643.8545    1120.7806    12171.412 
   90450    305.14385     232.8097   -3093.6568   -2639.7784    914.49264    12169.765 
   90500    309.70158    233.01965    -3100.655   -2639.9974    800.11117    12168.407 
   90550    304.04288    232.88138   -3096.0461   -2643.8054    1021.0671    12167.288 
   90600    302.07457    232.75764   -3091.9214   -2642.6084    1112.5056    12166.513 
   90650    295.79067    232.50076   -3083.3585   -2643.3923    1284.0114    12166.148 
   90700    312.76285    233.06469   -3102.1564   -2636.9454    746.66725    12166.231 
   90750    304.26458    232.74797   -3091.5991   -2639.0286    943.03604     12166.56 
   90800    305.94974     232.8287     -3094.29   -2639.2129    841.72044    12167.162 
   90850    304.72076    232.83716    -3094.572    -2641.323    797.80356    12168.004 
   90900    302.94364    232.76064   -3092.0213   -2641.4156    834.23181    12169.068 
   90950    308.69642     232.9928   -3099.7599   -2640.5974    653.71566    12170.367 
   91000    314.77427    233.21036    -3107.012   -2638.8091    497.93549    12171.821 
   91050    311.31454    233.06431   -3102.1436   -2639.0869    643.58796     12173.35 
   91100    302.02528    232.78153   -3092.7177    -2643.478    848.23953    12175.032 
   91150    309.43518    233.08238   -3102.7461   -2642.4847    606.75139    12176.932 
   91200    314.71028    233.19684   -3106.5614   -2638.4537    451.63852    12178.961 
   91250    314.38449    233.21895   -3107.2984   -2639.6753     323.2597    12181.025 
   91300     314.2427    233.25107   -3108.3689   -2640.9567    344.36517    12183.043 
   91350    309.20816    233.12052   -3104.0172   -2644.0935    502.74229     12185.06 
   91400    304.08937    232.97032   -3099.0107   -2646.7008     562.3546    12187.129 
   91450    307.42375    233.10321   -3103.4405   -2646.1709    352.82503    12189.284 
   91500    314.45084    233.34459   -3111.4865   -2643.7647    75.107584    12191.417 
   91550    297.58373    232.82807   -3094.2688   -2651.6356    492.19718    12193.418 
   91600    303.99704    233.02656   -3100.8853   -2648.7127    307.64908    12195.437 
   91650    291.34009    232.62275   -3087.4249   -2654.0786    714.98374     12197.45 
   91700    297.24103    232.92207   -3097.4025    -2655.279    568.51115    12199.625 
   91750    305.92577    233.28711   -3109.5704    -2654.529    286.33103     12201.91 
   91800    291.30187    232.74951   -3091.6504    -2658.361    655.42265    12204.183 
   91850    298.94764    232.99385    -3099.795   -2655.1331    322.88315    12206.565 
   91900    303.23844    233.29696   -3109.8988   -2658.8546   -23.610708    12208.929 
   91950     293.6188     233.1455     -3104.85   -2668.1143    102.67058    12211.098 
   92000    295.82842    233.22461   -3107.4871   -2667.4647    5.9855783    12213.114 
   92050    301.39354    238.46542   -3115.5142   -2667.2141   -256.93099    12214.944 
   92100    296.30976    238.29349    -3109.783   -2669.0447   -118.31476    12216.454 
   92150    293.62162    238.24203   -3108.0676   -2671.3277   -45.376933    12217.704 
   92200    291.29773    238.19953   -3106.6509   -2673.3677   -16.177226    12218.758 
   92250    296.62255    238.51433   -3117.1443   -2675.9407   -268.17474    12219.596 
   92300    287.22518    238.19513   -3106.5044   -2679.2787   -61.094555    12220.137 
   92350    283.66269    238.07701   -3102.5669   -2680.6402    -54.36951    12220.448 
   92400    285.47717    238.24716   -3108.2386   -2683.6129   -217.04702    12220.543 
   92450    277.62757    238.02527   -3100.8422   -2687.8922   -66.506623    12220.371 
   92500    284.85721    238.35896   -3111.9653   -2688.2618   -394.22174    12219.954 
   92550     280.0778    238.21823   -3107.2744   -2690.6799   -341.31189    12219.175 
   92600    284.35596    238.38496   -3112.8319    -2689.874   -447.16115    12218.016 
   92650    270.48177    237.90221   -3096.7403   -2694.4192   -2.4892319    12216.487 
   92700    296.01569    238.85062   -3128.3541   -2688.0532   -761.32248    12214.704 
   92750    284.22321    238.54375    -3118.125   -2695.3645   -411.86112    12212.402 
   92800    281.33033    238.50453   -3116.8176     -2698.36   -359.98365     12209.68 
   92850    285.58273    238.59685   -3119.8951   -2695.1124    -505.0349    12206.585 
   92900    287.53629    238.62476   -3120.8252   -2693.1368   -508.79136    12203.029 
   92950    284.11011    238.56909   -3118.9696   -2696.3773   -322.56909    12199.038 
   93000    273.98225    238.16569   -3105.5229   -2697.9951    24.656597     12194.72 
   93050    291.53251    238.74036   -3124.6788   -2691.0463   -449.30756    12190.181 
   93100    279.07695    238.36746   -3112.2487   -2697.1428   -6.4996915    12185.283 
   93150    285.45995    238.59647   -3119.8824   -2695.2824    -79.97232    12180.177 
   93200    287.00849    238.64809   -3121.6031   -2694.6997   -82.048856    12174.881 
   93250    284.72169    238.64091   -3121.3637   -2697.8618    17.517164    12169.361 
   93300    274.24225    238.22211   -3107.4036   -2699.4891    427.56163    12163.706 
   93350    280.00975    238.32885   -3110.9617   -2694.4684    337.07716    12158.086 
   93400    281.35199    238.38275   -3112.7584   -2694.2687    336.04703    12152.475 
   93450    285.62041    238.56196   -3118.7321   -2693.8934     284.1123    12146.878 
   93500    299.53096    239.07083   -3135.6944   -2690.1648   -68.687722    12141.241 
   93550    296.86341    239.01114   -3133.7048   -2692.1429    189.85528     12135.41 
   93600    276.11664    238.24179   -3108.0596    -2697.357    948.51044    12129.554 
   93650    292.08415    238.74566   -3124.8553   -2690.4022    464.06483    12123.965 
   93700    297.28986    238.87124   -3129.0415   -2686.8454     420.7288     12118.47 
   93750     287.1428    238.49486   -3116.4953   -2689.3922    856.49761    12113.056 
   93800    293.73349    238.70372   -3123.4573    -2686.551    749.30092    12107.899 
   93850     285.8698    238.45047   -3115.0158   -2689.8061    1042.0801    12102.999 
   93900    292.56325    238.70087   -3123.3622   -2688.1965    820.31738    12098.457 
   93950    291.17559    238.52994   -3117.6645   -2684.5629    924.84754    12094.201 
   94000    289.31422    238.50766   -3116.9221   -2686.5891    1002.4741    12090.264 
   94050    297.31103    243.68961   -3122.9869   -2680.7593    891.90856    12086.691 
   94100    275.92431     242.9185   -3097.2832   -2686.8667    1652.0926    12083.486 
   94150    292.49645    243.50768   -3116.9226   -2681.8563    1253.6813    12080.923 
   94200    303.58324    243.84622   -3128.2074   -2676.6503    903.68925    12078.889 
   94250    304.15786    243.93492    -3131.164   -2678.7522    837.93467    12077.173 
   94300    284.41957    243.10915   -3103.6382   -2680.5857    1494.4944    12075.781 
   94350    298.11722    243.60383   -3120.1277    -2676.701    1092.4836    12074.955 
   94400     297.7197    243.59217   -3119.7388   -2676.9033    1197.6123    12074.584 
   94450     297.7636    243.56187    -3118.729   -2675.8282    1311.8984     12074.69 
   94500    293.88053    243.42585   -3114.1951   -2677.0701    1462.8883    12075.337 
   94550    293.92924    243.40137   -3113.3789   -2676.1814    1419.3619    12076.587 
   94600    298.03392    243.43677   -3114.5589    -2671.256     1225.597    12078.429 
   94650    308.63715     243.8143   -3127.1432   -2668.0689    912.25918    12080.742 
   94700     297.5107    243.32412   -3110.8039   -2668.2793     1345.055    12083.411 
   94750    288.80218    242.98758    -3099.586   -2670.0147    1538.2393    12086.629 
   94800    295.36039    243.26521   -3108.8403   -2669.5141    1212.3234    12090.484 
   94850    292.42293     243.0768   -3102.5599   -2667.6029    1329.6555    12094.843 
   94900    289.09761    242.94641   -3098.2136   -2668.2028    1398.5759     12099.75 
   94950    309.69062    243.56468   -3118.8226   -2658.1813    715.25481    12105.198 
   95000    305.89667    243.43501   -3114.5003   -2659.5022    740.91435    12110.909 
   95050    305.90635    243.50452   -3116.8175    -2661.805    679.48398    12116.818 
   95100    297.23017      243.235   -3107.8334   -2665.7261    885.72152     12122.95 
   95150     293.2221    243.07191    -3102.397   -2666.2514    1022.9251    12129.398 
   95200    295.14337    243.07245   -3102.4149   -2663.4115    936.45841    12136.224 
   95250    309.13158    243.55505   -3118.5016   -2658.6918    441.10208    12143.358 
   95300    299.51268    243.16527    -3105.509   -2660.0066    705.95029    12150.612 
   95350    305.96746    243.33443   -3111.1476   -2656.0441    540.02631    12158.041 
   95400    278.86496    242.36458   -3078.8192   -2664.0287    1385.8876    12165.649 
   95450    292.73929    242.89043   -3096.3477   -2660.9202    860.46533    12173.763 
   95500    291.65317    242.72198   -3090.7328   -2656.9208    733.30774    12182.224 
   95550    303.87769    243.06106   -3102.0352   -2650.0401    255.84809     12190.88 
   95600    312.61436    243.36322   -3112.1072   -2647.1171   -180.54474    12199.508 
   95650    306.33174    243.22237   -3107.4122   -2651.7669   -163.39842    12207.884 
   95700    304.94677     243.1627   -3105.4234   -2651.8382   -122.12085    12215.998 
   95750    297.91861    242.87327   -3095.7757   -2652.6444    250.59798    12223.892 
   95800    292.97422     242.6412   -3088.0401   -2652.2631    482.04717    12231.738 
   95850    288.27049    242.42574   -3080.8579   -2652.0773    559.27037    12239.668 
   95900    294.00086     242.5931   -3086.4366   -2649.1326    277.00979    12247.717 
   95950    292.49639    242.50495   -3083.4983   -2648.4321    233.89674    12255.768 
   96000    291.67305    242.49244   -3083.0813   -2649.2397    149.85643    12263.775 
   96050    293.00615    242.50048   -3083.3493   -2647.5249   -35.133455    12271.698 
   96100     294.6673    242.49536   -3083.1787   -2644.8834   -126.55991    12279.433 
   96150    299.77894    242.59408   -3086.4694    -2640.571   -244.86005     12286.92 
   96200    292.34046    242.36652   -3078.8839   -2644.0496   -15.316686    12294.118 
   96250    289.15849    242.26527   -3075.5089   -2645.4075    33.029716    12301.117 
   96300     291.1024    242.31966    -3077.322   -2644.3292   -213.24894    12307.958 
   96350     305.8352    242.78489   -3092.8295   -2637.9228   -799.45462    12314.473 
   96400    279.53468    241.82396   -3060.7988   -2645.0121    -24.30524    12320.461 
   96450     303.3534    242.65581   -3088.5269   -2637.3117   -787.55022    12326.159 
   96500    302.88633     242.6185   -3087.2835    -2636.763   -786.97714    12331.296 
   96550    287.35151    242.01342   -3067.1139   -2639.7003   -162.77551    12335.842 
   96600     284.3943    241.86626   -3062.2086   -2639.1936   -65.699515    12340.093 
   96650    290.47215    242.08125    -3069.375   -2637.3197   -282.96378    12344.113 
   96700    278.16551    241.50794   -3050.2646   -2636.5145     198.9504    12347.848 
   96750     286.7894    241.88299   -3062.7663   -2636.1888   -47.717936    12351.483 
   96800    302.31295     242.4364   -3081.2133   -2631.5457   -632.92094    12354.914 
   96850    294.60898    242.08575    -3069.525   -2631.3165   -468.43225    12357.858 
   96900     289.5396    241.83273   -3061.0909   -2630.4227   -315.26505    12360.358 
   96950    301.39774    242.16044   -3072.0147   -2623.7083    -731.1538    12362.477 
   97000    312.51772    242.56921   -3085.6405   -2620.7941   -1112.2335        12364 
   97050    304.34144     242.2778   -3075.9267   -2623.2419   -805.78624    12364.753 
   97100     283.6418    241.41814   -3047.2715   -2625.3758   -50.495574    12364.911 
   97150    291.00325    241.66217   -3055.4055   -2622.5603   -203.71155    12364.819 
   97200      303.876    242.18295   -3072.7649   -2620.7723   -604.82292     12364.43 
   97250    289.85531    241.62744   -3054.2478     -2623.11   -156.95821    12363.575 
   97300    279.79207    241.32645   -3044.2149   -2628.0454    146.46387    12362.442 
   97350    294.26381    241.74404   -3058.1346   -2620.4394   -244.91441     12361.17 
   97400    294.64866    241.75421   -3058.4737   -2620.2062    -263.8433    12359.603 
   97450    304.14644    242.04244   -3068.0813   -2615.6865   -457.97463    12357.694 
   97500    312.64884    242.30538    -3076.846   -2611.8046    -654.0303    12355.349 
   97550    293.21684    241.69243   -3056.4145   -2620.2766   -111.95401    12352.517 
   97600      292.946    241.75054   -3058.3514   -2622.6165   -122.51812     12349.42 
   97650    288.37419    241.53991   -3051.3303   -2622.3956    76.159564    12346.099 
   97700    297.85524    241.87758   -3062.5861   -2619.5491   -153.24646    12342.619 
   97750    308.75009     242.2205   -3074.0165   -2614.7742   -388.19194    12338.884 
   97800    303.11194    241.98223   -3066.0745   -2615.2185   -99.785419    12334.797 
   97850    296.21192    241.82289   -3060.7629   -2620.1701    165.35633    12330.465 
   97900    289.63835    241.49343    -3049.781   -2618.9659    386.83336     12326.07 
   97950     321.4691    242.63793   -3087.9309   -2609.7699   -554.48775    12321.641 
   98000    303.85219    241.98942   -3066.3138   -2614.3567    2.2675291    12316.822 
   98050     316.3352    242.50259   -3083.4196    -2612.895   -374.72849     12311.76 
   98100    302.44484    242.07617   -3069.2058    -2619.342    22.400983    12306.374 
   98150    305.34328     242.1328   -3071.0932   -2616.9182    35.099407     12300.79 
   98200     297.2752    241.81489   -3060.4962   -2618.3219    410.68604    12295.077 
   98250    301.25876    241.97688   -3065.8959   -2617.7963    362.41313      12289.4 
   98300    315.37465    242.48217   -3082.7391   -2613.6432   -11.566046    12283.728 
   98350    307.02901    242.17979   -3072.6596   -2615.9772    284.68487    12277.926 
   98400    313.39544     242.4368   -3081.2268   -2615.0748    121.72373    12272.089 
   98450    303.52377       242.11   -3070.3335   -2618.8649    481.07958    12266.186 
   98500    307.60215    242.19537    -3073.179   -2615.6441    469.72001     12260.35 
   98550    308.39765    242.27834   -3075.9447   -2617.2266    501.65351    12254.595 
   98600    301.67712    242.06719   -3068.9063   -2620.1844    717.78191    12248.964 
   98650    306.32292    242.21465   -3073.8216   -2618.1895     599.1825     12243.54 
   98700    305.92974    242.18515   -3072.8383    -2617.791    675.21185    12238.295 
   98750    306.69549     242.2968   -3076.5601   -2620.3738    715.96203    12233.251 
   98800    311.75991    242.43823   -3081.2744   -2617.5551    677.70573    12228.428 
   98850    316.32341    242.60371   -3086.7902   -2616.2831    591.57684    12223.798 
   98900    308.96484     242.4085   -3080.2833   -2620.7215    814.19872    12219.337 
   98950    299.21177    242.06041   -3068.6802   -2623.6254    1098.3523    12215.165 
   99000    311.49282    242.55063   -3085.0211   -2621.6991    764.19998    12211.372 
   99050    311.93627    247.63666   -3087.8888   -2623.9072    785.23959    12207.854 
   99100    299.25127    247.15435   -3071.8117   -2626.6981    1261.7905    12204.628 
   99150    296.26766    246.97988   -3065.9961   -2625.3204    1413.2646    12201.926 
   99200    300.82615     247.1776   -3072.5867   -2625.1306    1141.6372    12199.824 
   99250    312.57646    247.71635   -3090.5451   -2625.6113    699.01024    12198.164 
   99300    304.78115    247.45899   -3081.9664   -2628.6275    1023.3246    12196.774 
   99350    302.83241    247.39728   -3079.9094   -2629.4691    1106.7729    12195.771 
   99400    317.13858    247.94065   -3098.0218   -2626.3022    598.02205    12195.172 
   99450    294.33888    247.08004   -3069.3345   -2631.5278    1336.1824    12194.804 
   99500    298.36304     247.2408   -3074.6933   -2630.9009    1179.1505    12194.938 
   99550    309.09916    247.72439   -3090.8129   -2631.0513    768.20898    12195.552 
   99600    302.79251    247.56247   -3085.4156   -2635.0347    990.06404    12196.453 
   99650    302.71157    247.58322   -3086.1073   -2635.8468    940.01083    12197.699 
   99700    303.04638    247.48555   -3082.8518   -2632.0933    879.01903      12199.3 
   99750    321.03838    248.14753   -3104.9175   -2627.3973    327.03737    12201.168 
   99800    306.81604    247.71979   -3090.6596    -2634.294    771.83517    12203.106 
   99850    291.58225     247.2949   -3076.4968   -2642.7903    1066.2991    12205.301 
   99900    308.25143    247.95331   -3098.4436    -2639.943    376.76443    12207.867 
   99950    305.08513    247.83909   -3094.6364   -2640.8454    454.35033    12210.532 
  100000    294.21426    247.34254   -3078.0846   -2640.4632    841.41959    12213.312 
Loop time of 26.7297 on 1 procs for 100000 steps with 500 atoms

Performance: 323.236 ns/day, 0.074 hours/ns, 3741.162 timesteps/s
99.8% CPU use with 1 MPI tasks x 1 OpenMP threads

MPI task timing breakdown:
Section |  min time  |  avg time  |  max time  |%varavg| %total
---------------------------------------------------------------
Pair    | 21.92      | 21.92      | 21.92      |   0.0 | 82.01
Bond    | 0.007056   | 0.007056   | 0.007056   |   0.0 |  0.03
Neigh   | 0.53266    | 0.53266    | 0.53266    |   0.0 |  1.99
Comm    | 0.76995    | 0.76995    | 0.76995    |   0.0 |  2.88
Output  | 0.018963   | 0.018963   | 0.018963   |   0.0 |  0.07
Modify  | 2.7413     | 2.7413     | 2.7413     |   0.0 | 10.26
Other   |            | 0.7394     |            |       |  2.77

Nlocal:    500 ave 500 max 500 min
Histogram: 1 0 0 0 0 0 0 0 0 0
Nghost:    1580 ave 1580 max 1580 min
Histogram: 1 0 0 0 0 0 0 0 0 0
Neighs:    14440 ave 14440 max 14440 min
Histogram: 1 0 0 0 0 0 0 0 0 0

Total # of neighbors = 14440
Ave neighs/atom = 28.88
Ave special neighs/atom = 0
Neighbor list builds = 644
Dangerous builds = 0

write_data      ${walker}/final_restart_file
write_data      8/final_restart_file

quit
