LAMMPS (19 May 2017)
Processor partition = 8
  using 1 OpenMP thread(s) per MPI task
# gREM variables
variable        lambda world 1000 1005 1010 1015 1020 1025 1030 1035 1040 1045 1050 1055 1060 1065 1070 1075
variable        walker world 0 1 2 3 4 5 6 7 8 9 10 11 12 13 14 15
variable        replica world 4 9 1 7 0 12 3 5 8 13 14 6 15 11 2 10

variable        T0 equal 300.0
variable        press equal 0.0

units           real
atom_style      full
pair_style      lj/cut 5.0

# LJ particles
read_data       ${walker}/restart_file
read_data       8/restart_file
  orthogonal box = (1.0499 1.0499 1.0499) to (23.9501 23.9501 23.9501)
  1 by 1 by 1 MPI processor grid
  reading atoms ...
  500 atoms
  reading velocities ...
  500 velocities
  0 = max # of 1-2 neighbors
  0 = max # of 1-3 neighbors
  0 = max # of 1-4 neighbors
  1 = max # of special neighbors

#dump            dump all xyz 1000 ${walker}/dump.xyz

fix             fxnpt all npt temp ${T0} ${T0} 1000.0 iso ${press} ${press} 10000.0
fix             fxnpt all npt temp 300 ${T0} 1000.0 iso ${press} ${press} 10000.0
fix             fxnpt all npt temp 300 300 1000.0 iso ${press} ${press} 10000.0
fix             fxnpt all npt temp 300 300 1000.0 iso 0 ${press} 10000.0
fix             fxnpt all npt temp 300 300 1000.0 iso 0 0 10000.0
fix             fxgREM all grem ${lambda} -.03 -30000 fxnpt
fix             fxgREM all grem 1040 -.03 -30000 fxnpt
thermo_modify   press fxgREM_press

thermo          50
thermo_style    custom step temp f_fxgREM pe etotal press vol
WARNING: New thermo_style command, previous thermo_modify settings will be lost (../output.cpp:705)
timestep        1.0

temper/grem     100000 1000 ${lambda} fxgREM fxnpt 10294 98392 ${walker}
temper/grem     100000 1000 1040 fxgREM fxnpt 10294 98392 ${walker}
temper/grem     100000 1000 1040 fxgREM fxnpt 10294 98392 8
Neighbor list info ...
  update every 1 steps, delay 10 steps, check yes
  max neighbors/atom: 2000, page size: 100000
  master list distance cutoff = 7
  ghost atom cutoff = 7
  binsize = 3.5, bins = 7 7 7
  1 neighbor lists, perpetual/occasional/extra = 1 0 0
  (1) pair lj/cut, perpetual
      attributes: half, newton on
      pair build: half/bin/newton
      stencil: half/bin/3d/newton
      bin: standard
Per MPI rank memory allocation (min/avg/max) = 5.724 | 5.724 | 5.724 Mbytes
Step Temp f_fxgREM PotEng TotEng Press Volume 
       0    307.17131    234.74092   -3158.0307   -2701.1367    671.34984    12009.306 
      50    304.46573    234.63936   -3154.6453   -2701.7756    805.28371     12009.38 
     100    295.32342    234.32985   -3144.3285   -2705.0573    1094.2856     12009.69 
     150    288.92238    234.02494   -3134.1647   -2704.4146    1351.0571    12010.386 
     200    293.03123     234.1676     -3138.92   -2703.0582    1209.9585    12011.572 
     250    295.11943    234.14414   -3138.1381   -2699.1704    1178.7914    12013.213 
     300    289.36462    234.01241   -3133.7468   -2703.3389    1340.5643    12015.316 
     350    299.10369    234.34376   -3144.7919   -2699.8979    990.35789    12017.908 
     400    287.10658    234.01581   -3133.8604   -2706.8111    1270.0665    12020.861 
     450    302.63564    234.51926   -3150.6421   -2700.4945    787.73003    12024.249 
     500    300.14538    234.43702   -3147.9006   -2701.4571    837.17445    12027.891 
     550    287.42192    233.98769   -3132.9229   -2705.4045    1247.3018    12031.806 
     600    294.30519    234.19548   -3139.8492   -2702.0926    984.05797    12036.169 
     650    292.59793    234.07873   -3135.9578   -2700.7406    1002.2249     12040.88 
     700    289.12647     233.9941   -3133.1365   -2703.0828    1096.7118    12045.943 
     750    306.91095     234.5682   -3152.2732   -2695.7665    500.39498    12051.367 
     800    302.11344    234.33801   -3144.6002   -2695.2294    464.55714    12056.898 
     850    292.82455    233.99988   -3133.3292   -2697.7749      685.355    12062.485 
     900    284.32699    233.63745   -3121.2484   -2698.3336     1048.643    12068.254 
     950    283.59945    233.64589   -3121.5296   -2699.6969    1088.7966    12074.385 
    1000    290.43797    233.92833   -3130.9442   -2698.9397    737.16853    12080.902 
    1050    298.94475    234.10292   -3136.7638   -2692.1062    376.09552    12087.637 
    1100    311.69535    234.51597   -3150.5323   -2686.9091   -40.162657    12094.373 
    1150    302.29882     234.2078   -3140.2601   -2690.6135    257.46125    12100.918 
    1200    293.08021    233.73815   -3124.6048   -2688.6702    556.36456    12107.413 
    1250    299.46044    233.96189   -3132.0631   -2686.6384    231.41967    12113.979 
    1300    292.21639    233.68528   -3122.8428   -2688.1931    452.67939    12120.487 
    1350    280.61572    233.19082   -3106.3607   -2688.9661    823.99538    12127.072 
    1400    299.13069    233.78991   -3126.3302    -2681.396    161.10282    12133.857 
    1450    304.84719    233.92747   -3130.9158   -2677.4787   -87.121799    12140.564 
    1500    299.71397    233.70872   -3123.6241   -2677.8222    147.35992     12147.05 
    1550    297.25135    233.60697   -3120.2323   -2678.0935    222.29705    12153.408 
    1600    303.52432    233.86786   -3128.9286   -2677.4591   -123.31178    12159.675 
    1650    286.61844    233.12131   -3104.0438   -2677.7206     410.9258    12165.718 
    1700    276.83225    232.75553   -3091.8512   -2680.0842    713.17036    12171.773 
    1750    294.39852     233.2685   -3108.9499   -2671.0544    158.94613    12177.989 
    1800    306.56404    233.60036   -3120.0119   -2664.0211   -186.55159     12184.11 
    1850     300.1132    233.31055   -3110.3518   -2663.9561   -19.548582    12189.972 
    1900    304.28242    233.41471   -3113.8237   -2661.2267   -138.21886    12195.603 
    1950    298.65255    233.07099   -3102.3665   -2658.1434    185.19295    12200.972 
    2000    289.88321    232.71955   -3090.6517   -2659.4724    446.06927    12206.247 
    2050     307.6666     238.2405   -3108.0165   -2650.3858   -102.97177    12211.534 
    2100    308.90147    238.20902   -3106.9673   -2647.4997   -51.222841    12216.593 
    2150    300.41631    237.92415   -3097.4716   -2650.6251    292.02749    12221.441 
    2200    296.55355    237.80381   -3093.4603   -2652.3594    424.90784    12226.259 
    2250    292.14603    237.58914   -3086.3046   -2651.7596    447.79005    12231.115 
    2300    299.98538    237.78985   -3092.9949   -2646.7894    76.495449    12235.996 
    2350     299.2305    237.66942   -3088.9806   -2643.8979    60.105439     12240.76 
    2400    304.89175    237.86188   -3095.3959   -2641.8925   -183.00921    12245.353 
    2450    304.17388    237.76834    -3092.278   -2639.8424   -195.79158    12249.671 
    2500    292.62795    237.41476    -3080.492   -2645.2301    145.18244    12253.699 
    2550     301.6945     237.7562   -3091.8733   -2643.1256    -175.2636    12257.582 
    2600    307.41959    237.88965   -3096.3216   -2639.0582   -345.04466    12261.187 
    2650    294.12117    237.47649   -3082.5498   -2645.0668    101.41237    12264.433 
    2700    290.42532    237.30589    -3076.863   -2644.8773    230.93839    12267.533 
    2750    304.55853    237.72925   -3090.9751   -2637.9674    -194.6941     12270.54 
    2800    308.63098    237.81393   -3093.7978   -2634.7326   -309.44467    12273.267 
    2850    297.39753    237.32055   -3077.3517   -2634.9954    3.3246519     12275.66 
    2900    313.13671     237.8881     -3096.27   -2630.5029   -501.23731    12277.793 
    2950    299.00428    237.46528   -3082.1759   -2637.4296   -1.4414427    12279.522 
    3000      291.859    237.15727    -3071.909   -2637.7908    329.28296    12281.051 
    3050    300.60566    237.53557   -3084.5191   -2637.3909   -47.001146    12282.547 
    3100    304.82952    237.64744   -3088.2479   -2634.8371   -238.78356    12283.843 
    3150    289.37938    237.07395   -3069.1317   -2638.7018    363.68622    12284.846 
    3200    282.67845    236.82486   -3060.8288    -2640.366    586.84391    12285.837 
    3250    297.13573    237.30753   -3076.9177   -2634.9509    52.649846    12286.927 
    3300    297.17459    237.30043   -3076.6809   -2634.6562   -34.625616    12287.894 
    3350    309.40496     237.7199   -3090.6634    -2630.447   -450.36393    12288.632 
    3400    320.80549    237.96642   -3098.8808    -2621.707   -724.25265    12288.925 
    3450    305.19335    237.48626   -3082.8754   -2628.9235   -297.67691    12288.667 
    3500    290.92548    237.06369   -3068.7896     -2636.06    116.72148    12288.061 
    3550    287.89086    237.04432   -3068.1441   -2639.9283    258.05015    12287.311 
    3600    285.51806    236.97919   -3065.9731   -2641.2866    377.70962     12286.53 
    3650     300.6026    237.42133   -3080.7109   -2633.5873    -35.48056    12285.737 
    3700    294.80919    237.13027   -3071.0089   -2632.5026    146.28752    12284.772 
    3750    311.08228    237.68903   -3089.6344    -2626.923   -310.37877    12283.654 
    3800    315.21699    237.84437   -3094.8122   -2625.9509   -419.14571    12282.192 
    3850    300.31158    237.37275   -3079.0918    -2632.401    65.517888    12280.329 
    3900    307.60855    237.59949   -3086.6497   -2629.1053   -125.71787    12278.273 
    3950    310.79462    237.63879   -3087.9597   -2625.6762   -191.09341    12275.967 
    4000    315.17855    237.75027   -3091.6756   -2622.8714   -259.36669    12273.347 
    4050    301.64105    232.31582   -3077.1941   -2628.5259    107.18391    12270.402 
    4100    312.60799    232.67048    -3089.016   -2624.0353   -192.73879    12267.261 
    4150    314.72864    232.85179   -3095.0595   -2626.9245   -335.23133     12263.83 
    4200    317.27795     232.8619   -3095.3967   -2623.4698   -292.50428    12259.995 
    4250    310.75794    232.73407   -3091.1356   -2628.9067   -24.890984    12255.793 
    4300    311.61368    232.76556   -3092.1855   -2628.6837    3.5635391     12251.34 
    4350    309.30379    232.64169   -3088.0562   -2627.9903    137.44895     12246.68 
    4400    311.52241    232.75537   -3091.8458   -2628.4798    58.076266    12241.887 
    4450    317.11437    232.96555   -3098.8515   -2627.1679   -138.63192    12236.909 
    4500     313.9026    232.83913   -3094.6377   -2627.7313    92.554559    12231.657 
    4550    294.42513    232.23761   -3074.5871   -2636.6521    852.60478    12226.277 
    4600    311.73418    232.88857   -3096.2858   -2632.6048    368.18902    12221.083 
    4650    313.13974    232.94285   -3098.0951   -2632.3234    334.78128    12215.914 
    4700    310.02489    232.91017   -3097.0058   -2635.8672    427.89044    12210.707 
    4750    307.56871    232.85869   -3095.2898   -2637.8046    447.57442    12205.536 
    4800    308.51419    232.90089   -3096.6962   -2637.8047    388.35626    12200.395 
    4850    303.49582    232.72972   -3090.9906   -2639.5636    582.24951    12195.279 
    4900    301.61629    232.76761   -3092.2538   -2643.6224    659.50407    12190.275 
    4950    307.00095    232.91245   -3097.0816    -2640.441    599.26591    12185.417 
    5000    310.40278     233.0074   -3100.2465   -2638.5459    514.23747    12180.693 
    5050    305.97175    237.85111   -3095.0372   -2639.9274    661.43936    12176.062 
    5100    310.91685    238.13121   -3104.3735   -2641.9083    482.55798    12171.575 
    5150     309.7609    238.22728    -3107.576   -2646.8301    495.12472    12167.169 
    5200    291.87352    237.74585   -3091.5282   -2657.3885     1063.548    12162.876 
    5250    317.56711    238.67435   -3122.4782   -2650.1212    253.15685    12158.895 
    5300    309.36274    238.52215   -3117.4049   -2657.2513    415.16414     12154.93 
    5350    304.75687    238.41362   -3113.7874   -2660.4846    572.80205    12150.985 
    5400    307.49625    238.54681   -3118.2269   -2660.8495    397.58593    12147.153 
    5450    304.42907    238.48617   -3116.2056   -2663.3904    472.04102    12143.362 
    5500    296.60787    238.24254   -3108.0846   -2666.9029    729.33054    12139.662 
    5550    307.56766    238.64387   -3121.4622   -2663.9786    260.04761    12136.126 
    5600    305.47125    238.63022   -3121.0073   -2666.6419    229.35112     12132.56 
    5650     294.2542    238.40706   -3113.5688    -2675.888    556.08192    12128.956 
    5700    301.08007    238.70205   -3123.4017   -2675.5679     428.0209    12125.455 
    5750     301.8074    238.65202   -3121.7339   -2672.8182    505.11909    12122.026 
    5800    312.92768    239.14025   -3138.0085   -2672.5523    226.60456    12118.637 
    5850    295.66166    238.58923   -3119.6412   -2679.8668    874.26118    12115.248 
    5900    290.70359    238.44276   -3114.7587   -2682.3591    1032.6499     12112.13 
    5950    308.64382    239.04357   -3134.7857   -2675.7014    409.99261     12109.33 
    6000    298.24469    238.74689   -3124.8964   -2681.2801    687.78339    12106.628 
    6050    298.26615    238.84502   -3128.1673    -2684.519     761.4093    12104.086 
    6100    286.33889    238.45596   -3115.1986   -2689.2912    1225.3751    12101.805 
    6150    287.47691    238.43112   -3114.3707   -2686.7706    1203.1839    12099.987 
    6200    306.45284    239.17185   -3139.0618   -2683.2364     516.9471    12098.596 
    6250    305.07185    239.18575   -3139.5251   -2685.7538    543.29679    12097.336 
    6300    283.97177    238.34787   -3111.5956   -2689.2091    1252.9612    12096.223 
    6350    297.37707    238.80653   -3126.8842   -2684.5584    760.50826     12095.54 
    6400    288.59268    238.47621   -3115.8738   -2686.6141    876.60471    12095.136 
    6450    291.70419    238.60139   -3120.0462   -2686.1583    780.53793        12095 
    6500     292.6243     238.6509   -3121.6966   -2686.4401    720.52214    12095.112 
    6550    292.53864    238.66705   -3122.2351    -2687.106    698.34108    12095.438 
    6600    299.20817    239.00468   -3133.4893   -2688.4399    464.85913    12095.946 
    6650      307.835    239.19502   -3139.8341   -2681.9528    251.19223    12096.519 
    6700    307.91761    239.16157   -3138.7191    -2680.715    288.67324    12097.057 
    6750    306.40574    239.10451   -3136.8169   -2681.0616    360.41597     12097.55 
    6800    289.07581    238.49376   -3116.4585   -2686.4801    850.10344    12098.088 
    6850    289.41855     238.5921   -3119.7366   -2689.2484    918.20631    12098.874 
    6900    283.82283    238.47381   -3115.7936   -2693.6287    1092.6856    12099.998 
    6950     288.8131    238.61005   -3120.3349   -2690.7473       873.47    12101.525 
    7000    301.06512    238.94722    -3131.574   -2683.7624    524.84679    12103.338 
    7050    297.71413    233.84709   -3128.2362    -2685.409    579.75234    12105.262 
    7100    295.92241    233.78145   -3126.0485   -2685.8863    610.79013    12107.297 
    7150    302.70317    234.05322   -3135.1073   -2684.8593    411.36234    12109.447 
    7200    287.67764    233.56247    -3118.749   -2690.8504    812.53431    12111.661 
    7250    295.93626    233.86045   -3128.6818    -2688.499    486.02431    12114.064 
    7300    296.52824    233.74849   -3124.9496   -2683.8864    378.45232    12116.565 
    7350    307.52619    234.15589   -3138.5298   -2681.1079   -16.877771    12119.049 
    7400    297.88572    233.87356   -3129.1188   -2686.0363    208.24657     12121.36 
    7450    296.81141    233.83021   -3127.6736   -2686.1891    231.11952    12123.583 
    7500    300.58008    233.93094   -3131.0314   -2683.9413    118.30184    12125.731 
    7550     307.5568    234.13575   -3137.8585   -2680.3911   -105.52177    12127.737 
    7600    300.91027      233.946   -3131.5333    -2683.952    71.747076    12129.514 
    7650    296.22015    233.78194   -3126.0646   -2685.4595    300.68573    12131.124 
    7700    286.41875    233.47156   -3115.7185   -2689.6923    676.15456    12132.719 
    7750    287.27002    233.45021    -3115.007   -2687.7147     624.7892    12134.477 
    7800    310.76395    234.21393   -3140.4644   -2678.2266   -154.45554    12136.327 
    7850    299.91646    233.83511    -3127.837    -2681.734     201.8826    12137.954 
    7900    290.94879    233.48723    -3116.241   -2683.4767    469.39767    12139.502 
    7950    305.45146    234.00464   -3133.4881   -2679.1522   -101.01927    12141.072 
    8000    307.57963    234.07232   -3135.7441   -2678.2427   -245.23094    12142.404 
    8050    295.60167     233.5364   -3117.8799   -2678.1948    129.05379    12143.426 
    8100    290.77653    233.41079   -3113.6931    -2681.185    288.46776    12144.313 
    8150     292.6323    233.51941   -3117.3136   -2682.0453    235.54398    12145.161 
    8200    296.91443    233.60396   -3120.1321   -2678.4944    151.91512    12145.942 
    8250    298.91901    233.63187   -3121.0623   -2676.4429    120.45726    12146.612 
    8300    307.15148    233.98224   -3132.7413   -2675.8768   -111.04069    12147.124 
    8350    302.06787    233.69633   -3123.2111    -2673.908     170.2527    12147.413 
    8400    302.77333    233.73017    -3124.339   -2673.9866    192.18386    12147.571 
    8450    291.43568    233.37704   -3112.5681   -2679.0796    463.04975    12147.659 
    8500    300.91945    233.72584   -3124.1946   -2676.5997    99.539108    12147.757 
    8550    300.09203    233.70701   -3123.5669   -2677.2027    107.30916    12147.733 
    8600     298.7584    233.51198   -3117.0659   -2672.6854    259.89153     12147.57 
    8650    292.92882    233.38089   -3112.6964    -2676.987    463.94242    12147.338 
    8700    298.10402    233.50365   -3116.7885   -2673.3813    338.39911    12147.148 
    8750     297.3962    233.43132   -3114.3775   -2672.0231     319.6463    12146.961 
    8800    314.18265    233.97712   -3132.5706   -2665.2478   -232.50495    12146.706 
    8850    301.72671     233.4979   -3116.5966    -2667.801    211.27928    12146.176 
    8900    295.06088    233.35111   -3111.7036   -2672.8229    544.11955    12145.534 
    8950    299.48229    233.45222   -3115.0739   -2669.6166    526.64049     12144.97 
    9000    288.56694    233.03084   -3101.0281   -2671.8066    885.06161    12144.512 
    9050    293.28045    233.14838    -3104.946   -2668.7135    787.00314    12144.319 
    9100    305.27053    233.53353   -3117.7843   -2663.7175    500.62041    12144.349 
    9150    297.34767    233.11861   -3103.9536   -2661.6714    759.99425    12144.495 
    9200    301.89686    233.34272    -3111.424   -2662.3753    634.71279    12144.814 
    9250    296.60883    233.12905   -3104.3017   -2663.1185    839.21796    12145.308 
    9300     305.2554      233.395   -3113.1668   -2659.1225    546.96958    12146.028 
    9350     310.9804    233.54934   -3118.3114   -2655.7516    388.55934    12146.855 
    9400    308.80498    233.38455   -3112.8182   -2653.4942    533.83385    12147.711 
    9450    316.04495    233.62952    -3120.984    -2650.891    319.25562     12148.62 
    9500    303.16768    233.12168   -3104.0559    -2653.117    716.32494    12149.547 
    9550    308.48816    233.22676   -3107.5588    -2648.706    621.17981    12150.625 
    9600    315.61868    233.22415   -3107.4716   -2638.0127    533.44679    12151.831 
    9650    315.79971     233.2786   -3109.2868   -2639.5586    591.38661     12153.12 
    9700       316.51     233.2076   -3106.9201   -2636.1355    668.87163    12154.532 
    9750    307.58739    232.91231   -3097.0769    -2639.564    985.79879    12156.096 
    9800    303.99718    232.81417   -3093.8055   -2641.6328    1038.8449    12157.989 
    9850     328.2026    233.57173   -3119.0576   -2630.8811    290.21868    12160.191 
    9900    320.37352    233.35659   -3111.8864   -2635.3551      476.406    12162.406 
    9950    322.90939    233.46607   -3115.5355   -2635.2323     422.0648    12164.647 
   10000    316.76775    233.12205   -3104.0683   -2632.9002    765.17076    12166.929 
   10050    317.92573    233.08636   -3102.8788   -2629.9883    767.66375    12169.423 
   10100    313.16246    232.94727   -3098.2423   -2632.4368    833.48635    12172.141 
   10150    313.94322    232.95258   -3098.4192   -2631.4525    891.40208    12175.091 
   10200    306.73984    232.69247    -3089.749   -2633.4967     1148.022    12178.344 
   10250    309.28581    232.72016   -3090.6721   -2630.6329    1018.4499    12182.015 
   10300    320.38267      233.069   -3102.2999    -2625.755    553.52617     12186.02 
   10350    316.74323    232.93001   -3097.6669   -2626.5353    539.25243    12190.161 
   10400    330.78643    233.34027   -3111.3424   -2619.3227    140.19074    12194.359 
   10450    326.01901    233.18612   -3106.2042   -2621.2756    250.18673    12198.462 
   10500    313.61127    232.71323    -3090.441    -2623.968    616.23221    12202.516 
   10550    309.93933     232.5858   -3086.1933    -2625.182    686.20534    12206.697 
   10600    317.49365    232.94714   -3098.2381   -2625.9903    425.96618    12211.039 
   10650    317.02507    232.87622   -3095.8741   -2624.3233    425.70488    12215.432 
   10700    318.65003    233.01884   -3100.6281   -2626.6604    177.60482     12219.85 
   10750     306.6219    232.59694   -3086.5648    -2630.488    401.42014    12224.193 
   10800    312.54205    232.78205   -3092.7351   -2627.8525      176.354     12228.54 
   10850     313.1305    232.79705   -3093.2348    -2627.477    79.625179    12232.806 
   10900    302.00703    232.46418   -3082.1393   -2632.9267    360.85927    12236.933 
   10950    298.21868    232.38573   -3079.5245   -2635.9468    433.27465    12241.058 
   11000    314.06406    233.03066   -3101.0222   -2633.8757   -174.51122    12245.198 
   11050    309.97642    232.80272   -3093.4241   -2632.3577   -124.58722    12249.098 
   11100    314.18215     232.9633   -3098.7765   -2631.4544   -267.06053    12252.713 
   11150    306.90288    232.72134   -3090.7113   -2634.2165   -77.782787    12256.004 
   11200    309.05669    232.77657   -3092.5524    -2632.854   -113.59888    12259.033 
   11250    314.24016    233.09742   -3103.2475   -2635.8391   -342.54241    12261.803 
   11300     303.6959    232.75034   -3091.6782   -2639.9535   -86.955512    12264.209 
   11350    300.97964    232.73035   -3091.0118   -2643.3274   -98.347319    12266.348 
   11400    304.39721    232.99505   -3099.8351   -2647.0673   -357.94248    12268.229 
   11450    298.48084    232.72399   -3090.7996    -2646.832   -236.65197    12269.746 
   11500    303.12203    232.90664    -3096.888   -2646.0169   -433.08716    12270.904 
   11550    295.15738    232.64912   -3088.3039   -2649.2797    -233.3961     12271.64 
   11600    303.88967    233.00472   -3100.1575   -2648.1446   -473.42375    12272.021 
   11650    299.61119    232.91141   -3097.0471   -2651.3981   -364.06672    12271.961 
   11700     293.6629    232.78643   -3092.8809   -2656.0796   -273.76714     12271.49 
   11750    293.49803    232.76984   -3092.3279   -2655.7719   -323.27068    12270.656 
   11800    276.91596    232.29197   -3076.3989   -2664.5074    152.51422    12269.482 
   11850    283.84298    232.48782   -3082.9273   -2660.7323   -36.760542    12268.164 
   11900     296.6424    232.91345   -3097.1152   -2655.8821   -471.30228    12266.599 
   11950     303.6542    233.18589   -3106.1965   -2654.5339   -706.84921    12264.572 
   12000    286.84604    232.75373   -3091.7911   -2665.1293   -290.30708    12261.986 
   12050    302.44111     228.3226   -3110.7534   -2660.8952   -767.92962    12258.958 
   12100    310.84536    228.61429   -3120.4764   -2658.1175   -989.59394    12255.295 
   12150    299.07544    228.24366    -3108.122     -2663.27   -591.87164    12250.879 
   12200    296.32197    228.24783   -3108.2609   -2667.5044   -564.25949    12245.883 
   12250    305.88819    228.52777   -3117.5924   -2662.6069    -806.6802    12240.317 
   12300    297.82668    228.41649    -3113.883   -2670.8884   -595.95379    12234.096 
   12350    291.77549    228.22902   -3107.6338   -2673.6399     -338.132    12227.303 
   12400    302.67772    228.53132   -3117.7106   -2667.5004   -474.64887    12220.052 
   12450    298.66278    228.44071   -3114.6903    -2670.452   -226.07374     12212.32 
   12500     290.6663    228.24257   -3108.0855   -2675.7414    32.000749    12204.216 
   12550    302.81795    228.66018   -3122.0061   -2671.5874   -309.02101    12195.849 
   12600    301.01107    228.60714    -3120.238   -2672.5069   -186.28333    12187.088 
   12650    296.36332    228.44728   -3114.9093   -2674.0913     22.67796    12177.989 
   12700     303.0532    228.66757   -3122.2525   -2671.4838   -26.331238    12168.646 
   12750    297.81353    228.63884   -3121.2947   -2678.3196    255.14778    12159.055 
   12800     302.1824    228.77751   -3125.9171   -2676.4437    247.83478    12149.331 
   12850    296.08419    228.59105   -3119.7015   -2679.2987    587.01143    12139.501 
   12900    292.85025    228.47532    -3115.844   -2680.2514    786.69114    12129.723 
   12950     298.8962    228.68175    -3122.725   -2678.1396    569.57767    12120.117 
   13000    311.38733    229.06578   -3135.5259   -2672.3609    189.14619    12110.562 
   13050    310.16088    228.95745   -3131.9149   -2670.5741    331.26116     12100.88 
   13100    303.79435    228.86722   -3128.9072   -2677.0361    647.80089    12091.136 
   13150    308.24573    229.01082    -3133.694   -2675.2018    614.18279    12081.479 
   13200    315.62284    229.29988   -3143.3294   -2673.8644    487.54895     12071.88 
   13250    295.21151    228.54358   -3118.1194   -2679.0147    1286.9408     12062.35 
   13300    302.63463     228.8273   -3127.5768   -2677.4308     1113.684    12053.199 
   13350     322.7404    229.62552    -3154.184   -2674.1321     558.8918    12044.375 
   13400    304.01589    228.93249    -3131.083   -2678.8825    1311.1164     12035.68 
   13450    297.52973    228.79278   -3126.4262   -2683.8732    1627.3683     12027.41 
   13500    303.77033    229.00715   -3133.5717   -2681.7364    1526.7839    12019.754 
   13550    313.14554    229.29473   -3143.1575   -2677.3773    1316.4403    12012.659 
   13600    328.27698    229.84249   -3161.4164   -2673.1293    869.35238    12006.001 
   13650     311.8831    229.28603   -3142.8678   -2678.9653    1408.6845    11999.621 
   13700    315.89399     229.4708   -3149.0267   -2679.1583    1473.2093    11993.702 
   13750    304.54033    229.09366   -3136.4555   -2683.4748     1996.088     11988.36 
   13800    310.37733    229.33113   -3144.3711   -2682.7084    1845.8182    11983.786 
   13850    294.90661    228.81567    -3127.189   -2688.5377    2178.3176    11980.001 
   13900    306.63456    229.11232   -3137.0774   -2680.9817    1821.5866    11977.092 
   13950    314.15525    229.48934   -3149.6447   -2682.3626    1468.3771    11974.926 
   14000    314.76256    229.51584   -3150.5279   -2682.3425    1413.7325    11973.315 
   14050    297.89163    228.98656   -3132.8853   -2689.7941    1949.8205    11972.253 
   14100    294.09312    228.99326   -3133.1088   -2695.6676    1963.3853    11971.977 
   14150    310.72827    229.60251   -3153.4168   -2691.2321    1390.5482     11972.48 
   14200     304.1594    229.34328    -3144.776   -2692.3619     1629.425    11973.547 
   14250    307.30427    229.51091   -3150.3638    -2693.272    1487.1658    11975.251 
   14300    296.80553    229.17807    -3139.269   -2697.7933    1637.1501    11977.583 
   14350     304.8831    229.49088   -3149.6959   -2696.2054    1364.2873    11980.535 
   14400    312.82236    229.71374   -3157.1248   -2691.8252    1177.9657    11984.004 
   14450    304.52796    229.43936   -3147.9786   -2695.0164    1341.7025    11987.925 
   14500    310.67826    229.65556   -3155.1852   -2693.0748    1036.2854    11992.316 
   14550    299.15525    229.33988   -3144.6625   -2699.6918    1227.1703    11997.106 
   14600    310.52153    229.75045   -3158.3483   -2696.4711    752.51303    12002.313 
   14650     298.1798    229.38346   -3146.1155   -2702.5956    1028.2808    12007.795 
   14700    299.02308    229.39498   -3146.4992    -2701.725    902.33932    12013.622 
   14750    310.86007    229.80923   -3160.3078    -2697.927    496.13148    12019.738 
   14800    302.41493    229.47691   -3149.2303    -2699.411    777.05624    12025.979 
   14850    297.98758     229.3806   -3146.0201   -2702.7862    853.52491    12032.419 
   14900    283.56944    229.05644   -3135.2145   -2713.4264    1082.8494     12039.16 
   14950    291.38551    229.28606   -3142.8686   -2709.4548    741.48869    12046.279 
   15000    291.23003    229.25729   -3141.9097   -2708.7271    666.47291     12053.65 
   15050    286.65635    224.07067    -3135.689   -2709.3094    694.35466     12061.23 
   15100    302.38538    224.62171   -3154.0571   -2704.2817    69.963709    12068.966 
   15150    306.88957    224.88431   -3162.8103   -2706.3353   -226.03727    12076.569 
   15200    301.43614     224.6843   -3156.1432   -2707.7798   -154.37814    12083.883 
   15250    284.80518    224.09542   -3136.5139   -2712.8878    245.54737    12090.951 
   15300    303.62055    224.75058   -3158.3525     -2706.74   -408.73393    12097.908 
   15350    296.18196     224.5243     -3150.81   -2710.2617   -261.49405    12104.517 
   15400    280.23887    224.02585   -3134.1951    -2717.361    121.81407    12110.818 
   15450    288.16384    224.30834   -3143.6114   -2714.9895   -167.20645    12116.976 
   15500    288.40437    224.28914   -3142.9714   -2713.9917   -187.94292    12122.875 
   15550    293.05992    224.42722    -3147.574   -2711.6696   -412.65742    12128.465 
   15600    294.88976     224.5168   -3150.5601    -2711.934   -592.82856    12133.654 
   15650    286.30089    224.19051   -3139.6836   -2713.8327   -376.29853    12138.356 
   15700     270.6814    223.75481   -3125.1603   -2722.5422   -43.858364    12142.681 
   15750    290.63177     224.3896   -3146.3202   -2714.0274   -721.02645    12146.736 
   15800    295.62946     224.5754   -3152.5133   -2712.7869   -909.04489    12150.241 
   15850    297.25486    224.56941   -3152.3138   -2710.1698   -880.64201     12153.05 
   15900     288.0834    224.37245   -3145.7483   -2717.2461   -684.07046    12155.175 
   15950    282.44344    224.09881   -3136.6271   -2716.5139    -594.6086     12156.71 
   16000    278.68939    224.03175   -3134.3915   -2719.8622   -573.58671    12157.703 
   16050    288.50374     224.3827     -3146.09   -2716.9625    -845.2546    12158.153 
   16100    282.27181    224.09362   -3136.4539   -2716.5959   -589.55457    12157.968 
   16150    280.28653    224.03858   -3134.6192   -2717.7142    -442.5832    12157.224 
   16200    278.45793    223.98945   -3132.9817   -2718.7967   -352.44999    12156.032 
   16250    295.62412    224.52652   -3150.8841   -2711.1656   -749.35631    12154.391 
   16300    290.37406    224.38101   -3146.0337   -2714.1243   -535.25633    12152.144 
   16350    286.26898    224.11799   -3137.2663   -2711.4629   -394.92944     12149.38 
   16400    304.49291    224.77509   -3159.1698   -2706.2597   -932.43909     12146.11 
   16450    305.15315    224.73879   -3157.9597   -2704.0675   -863.88734     12142.12 
   16500    293.70577    224.30587   -3143.5291    -2706.664   -442.95643    12137.441 
   16550    292.45129     224.2867   -3142.8898   -2707.8907   -347.00256    12132.256 
   16600    299.77009     224.4485   -3148.2835   -2702.3982   -343.19241    12126.621 
   16650    285.20316    223.89798   -3129.9326   -2705.7145    180.91801    12120.583 
   16700    292.27806    224.19201   -3139.7337   -2704.9922    27.397662    12114.341 
   16750    296.64487    224.29025   -3143.0084   -2701.7716   -2.2954131    12107.871 
   16800     299.1224      224.311   -3143.7001   -2698.7782     10.87376    12101.128 
   16850    297.79035    224.20328   -3140.1094   -2697.1688    128.98772    12094.122 
   16900    300.77644    224.31213   -3143.7377   -2696.3556    219.48048    12086.915 
   16950    294.82392    224.12495   -3137.4983     -2698.97    623.46768     12079.58 
   17000    303.98858    224.35291   -3145.0969   -2692.9369    509.61979    12072.272 
   17050    302.38337    219.18774   -3139.5912   -2689.8188    599.55763    12064.985 
   17100    312.26609    219.49534   -3149.8447   -2685.3725    427.01202    12057.715 
   17150    317.71796    219.63997   -3154.6657   -2682.0843    403.58571    12050.392 
   17200    312.52632    219.50229   -3150.0763   -2685.2171    619.51123    12043.014 
   17250    315.10476    219.46345   -3148.7816   -2680.0872    757.69733    12035.644 
   17300    298.07737    218.87843    -3129.281   -2685.9135    1371.8723    12028.431 
   17350    309.89313    219.31284   -3143.7613   -2682.8187    1142.1588    12021.608 
   17400     329.3214    219.80955   -3160.3184   -2670.4778    652.76174    12015.076 
   17450    325.48398    219.71715   -3157.2384   -2673.1056     833.0781    12008.632 
   17500    323.34801    219.59089   -3153.0295   -2672.0739    1109.3257    12002.334 
   17550    319.52295     219.5482   -3151.6067   -2676.3406    1266.0158    11996.324 
   17600    314.42712    219.40934   -3146.9778   -2679.2913    1458.9209    11990.677 
   17650    318.37254    219.51767    -3150.589    -2677.034    1406.6195    11985.495 
   17700    326.10428    219.82462   -3160.8207   -2675.7653     1194.427    11980.767 
   17750    320.79751    219.59198   -3153.0658   -2675.9039    1497.4031    11976.412 
   17800    315.23865    219.36268   -3145.4228   -2676.5292    1770.5965    11972.558 
   17850    327.26838    219.71158   -3157.0526   -2670.2657    1400.8668    11969.312 
   17900    331.12273    219.87732   -3162.5772   -2670.0572    1260.8093    11966.542 
   17950    309.32285    219.18598   -3139.5325   -2679.4382     1976.282    11964.206 
   18000    312.42527    219.26517   -3142.1725   -2677.4635    1963.0845    11962.605 
   18050    322.92889    219.55714   -3151.9047   -2671.5725    1692.1433    11961.774 
   18100    318.03749    219.44063   -3148.0211   -2674.9644    1838.2919    11961.585 
   18150    343.02755    220.32083    -3177.361   -2667.1335     1041.173    11962.035 
   18200     327.9383    219.83607   -3161.2022   -2673.4188    1457.1108    11962.859 
   18250    318.04366    219.53215   -3151.0717   -2678.0059    1725.1761    11964.193 
   18300    317.94161    219.55714   -3151.9045   -2678.9905    1649.6062    11966.182 
   18350    313.82656    219.46025    -3148.675   -2681.8817    1752.6775    11968.803 
   18400     314.9512    219.53792    -3151.264    -2682.798    1609.4102    11972.108 
   18450    322.93156    219.79293   -3159.7643   -2679.4281    1262.1111    11976.031 
   18500    307.63012    219.39351   -3146.4503   -2688.8738    1524.9815    11980.443 
   18550    319.32126    219.76427   -3158.8089   -2683.8428    1113.5394    11985.404 
   18600    310.69426    219.46705   -3148.9018   -2686.7676    1275.9156    11990.791 
   18650    317.42394      219.619   -3153.9665   -2681.8225    1035.7167    11996.634 
   18700    303.36612     219.1629   -3138.7632   -2687.5291    1422.6556     12002.87 
   18750     320.0381    219.70052   -3156.6839   -2680.6514    931.15867    12009.601 
   18800     315.8178     219.6266   -3154.2201    -2684.465    919.65317    12016.674 
   18850    310.10126    219.50356   -3150.1185   -2688.8664    965.43808     12024.04 
   18900    301.05481    219.18444   -3139.4813   -2691.6851    1098.1613     12031.74 
   18950    312.97489    219.68534   -3156.1779   -2690.6515     594.0686    12039.808 
   19000    302.67049    219.39644    -3146.548   -2696.3485    733.64489    12048.065 
   19050    302.59806    224.46058   -3148.6861   -2698.5945      550.474    12056.526 
   19100    299.53116    224.36378   -3145.4592   -2699.9293    463.70429    12065.147 
   19150    308.34304    224.60646   -3153.5487   -2694.9118    73.576884    12073.847 
   19200    291.34873    223.95566   -3131.8552    -2698.496     572.5453    12082.493 
   19250    297.21293    224.17268   -3139.0894   -2697.0077    368.69493    12091.243 
   19300    308.61403    224.56849    -3152.283   -2693.2431   -147.17529    12100.024 
   19350    292.07013    224.09068    -3136.356   -2701.9238    219.91036    12108.637 
   19400    291.09261    224.02462   -3134.1538   -2701.1756    215.81589    12117.198 
   19450    301.90016    224.32954    -3144.318   -2695.2644   -222.99314    12125.703 
   19500    313.95586    224.63197    -3154.399   -2687.4134   -663.00285    12133.927 
   19550    298.77476    224.09382   -3136.4605   -2692.0557   -288.46085    12141.669 
   19600    291.53282     223.9083   -3130.2767   -2696.6438   -240.17582    12149.077 
   19650    294.33576    224.20141   -3140.0471    -2702.245   -485.28117    12156.159 
   19700    271.34908    223.41437   -3113.8124   -2710.2012    170.98579    12162.873 
   19750    282.66403    223.81653   -3127.2177   -2706.7764   -227.06051    12169.472 
   19800    296.97016    224.17668   -3139.2227   -2697.5021    -665.5261    12175.785 
   19850    288.86047    223.89579   -3129.8597   -2700.2016   -427.65707    12181.599 
   19900    287.84163    223.80691   -3126.8969   -2698.7543   -342.51265    12186.997 
   19950    289.43772    223.82678   -3127.5595   -2697.0428   -471.36353    12192.028 
   20000    285.72599    223.73505   -3124.5015   -2699.5058   -528.40986    12196.628 
   20050     279.3279    228.48427   -3116.1423   -2700.6632   -361.30755    12200.771 
   20100    289.93106    228.72198    -3124.066   -2692.8156   -580.69401     12204.53 
   20150    284.66935    228.61873   -3120.6242   -2697.2002   -440.50009    12207.812 
   20200    289.90991    228.70571   -3123.5238   -2692.3047   -630.94015    12210.646 
   20250    292.29868    228.73632   -3124.5441    -2689.772   -772.33094    12212.956 
   20300    288.31133    228.59284   -3119.7614   -2690.9201   -582.47715    12214.657 
   20350    272.46894    228.09661   -3103.2204   -2697.9435   -174.53805    12215.873 
   20400    299.80078    228.93364   -3131.1214   -2685.1905   -1021.9497     12216.71 
   20450    280.43959    228.34279   -3111.4262   -2694.2935   -456.22103    12216.873 
   20500    293.06888    228.70829   -3123.6097   -2687.6919   -677.95323    12216.514 
   20550    297.11288    228.84606   -3128.2019    -2686.269   -736.49732    12215.584 
   20600    281.44022    228.36858   -3112.2862   -2693.6652   -237.81711    12214.059 
   20650     293.9478    228.72461   -3124.1538   -2686.9288   -601.58706    12212.129 
   20700    290.04605    228.54463   -3118.1543   -2686.7327   -483.66802    12209.676 
   20750    295.40488    228.66665   -3122.2218   -2682.8294   -550.32539    12206.705 
   20800    295.94833    228.61578   -3120.5259   -2680.3252   -508.14449    12203.205 
   20850    297.03276    228.61065   -3120.3549   -2678.5411   -410.74128    12199.177 
   20900    295.78577    228.64062   -3121.3539    -2681.395     -340.971    12194.685 
   20950     301.8374    228.89873   -3129.9578   -2680.9975   -484.73725    12189.726 
   21000    291.23769    228.47303   -3115.7676   -2682.5736    -25.03222    12184.287 
   21050    297.93778    228.55959   -3118.6531   -2675.4932   -90.997706    12178.566 
   21100    309.50622    228.93405   -3131.1349   -2670.7679   -295.53412    12172.509 
   21150    299.94684    228.52477   -3117.4922    -2671.344    135.37499    12166.053 
   21200    301.58611    228.58442   -3119.4807   -2670.8942    180.00659    12159.372 
   21250    301.31594     228.5879   -3119.5966   -2671.4119    303.75006    12152.513 
   21300    296.89377    228.42747   -3114.2491   -2672.6421    598.33503     12145.55 
   21350    296.58733    228.25705   -3108.5684   -2667.4173    805.28353    12138.638 
   21400    302.73168    228.43233    -3114.411   -2664.1206    781.70937    12131.858 
   21450    295.60741    228.19316   -3106.4387   -2666.7451    1104.4248    12125.251 
   21500    308.33945    228.67685   -3122.5615   -2663.9299    752.13609    12118.931 
   21550    311.30664    228.69256   -3123.0852   -2660.0401    677.12675    12112.766 
   21600    310.98377      228.714   -3123.7999   -2661.2351    730.30033    12106.682 
   21650    325.06077     229.2015     -3140.05   -2656.5468     446.5316    12100.684 
   21700    306.64232    228.64949   -3121.6496   -2665.5424    1069.7365    12094.716 
   21750    314.67592    228.87001   -3129.0002   -2660.9436    868.66193    12088.987 
   21800    324.71998    229.17889   -3139.2962   -2656.2999    591.15671    12083.438 
   21850     306.1982    228.49102   -3116.3675   -2660.9209    1213.7567    12077.982 
   21900    314.18821    228.84933   -3128.3112     -2660.98    1010.1098    12072.848 
   21950    327.58808    229.30483   -3143.4942   -2656.2318    591.28901     12067.99 
   22000    328.57113    229.27986   -3142.6619   -2653.9372    639.50149    12063.206 
   22050     309.8987    228.58871   -3119.6238    -2658.673    1297.8863    12058.521 
   22100    306.02491    228.55288   -3118.4292   -2663.2404    1407.6146    12054.242 
   22150    314.11593    228.84287   -3128.0957    -2660.872    1209.9869    12050.436 
   22200    316.66748    228.92727   -3130.9089     -2659.89    1237.1486    12047.037 
   22250    312.92495     228.8082   -3126.9401    -2661.488    1434.9051    12044.052 
   22300    302.35272    228.60393   -3120.1309   -2670.4041    1701.2893    12041.589 
   22350     317.9976    229.22259   -3140.7528   -2667.7555    1136.7632    12039.746 
   22400     316.2615    229.07498   -3135.8327   -2665.4177    1260.6933     12038.32 
   22450    319.85796     229.1556   -3138.5201   -2662.7556    1203.4239    12037.308 
   22500    335.52762    229.73994   -3157.9979    -2658.926    690.37547    12036.663 
   22550    310.85194    228.92124    -3130.708   -2668.3392    1372.3755    12036.222 
   22600    315.17498    229.03703   -3134.5678   -2665.7689     1286.411    12036.228 
   22650    300.89014    228.61593   -3120.5309   -2672.9796    1640.0044    12036.742 
   22700    305.67339    228.80761   -3126.9203   -2672.2543    1429.6456     12037.88 
   22750    316.29381    229.21164    -3140.388   -2669.9249    1006.8355    12039.573 
   22800    311.35099    228.98094   -3132.6978   -2669.5868    1131.9523    12041.641 
   22850    312.01891    229.06103   -3135.3676   -2671.2631    1055.3345      12044.1 
   22900    312.62491    229.07707   -3135.9023   -2670.8964    1055.2969    12046.929 
   22950    298.39924    228.78535   -3126.1782   -2682.3319    1367.0517    12050.152 
   23000    300.79109    228.86846   -3128.9485   -2681.5446    1261.2267    12053.888 
   23050    293.01517    233.66612   -3122.2042   -2686.3663    1383.5744     12058.15 
   23100     302.5332    233.95605   -3131.8685   -2681.8733    1005.0521    12062.978 
   23150    308.26717    234.17701   -3139.2336   -2680.7095    708.53513    12068.203 
   23200    302.61437    233.97694   -3132.5646   -2682.4487    810.07441    12073.687 
   23250    282.21714    233.31406   -3110.4688   -2690.6922    1310.0341    12079.496 
   23300    291.28056    233.54412   -3118.1373   -2684.8795    890.84632    12085.828 
   23350    315.00812    234.39607   -3146.5356   -2677.9849   -8.7790091    12092.491 
   23400    312.44839    234.34549   -3144.8497   -2680.1064    28.402619    12099.054 
   23450    290.59714    233.62355   -3120.7849   -2688.5437    625.57032    12105.535 
   23500    304.08911    234.16852   -3138.9507   -2686.6412     78.26293    12112.145 
   23550    298.19264    233.97406   -3132.4686   -2688.9296    119.00558    12118.692 
   23600    295.50419    233.86563   -3128.8543   -2689.3142    107.11052    12125.165 
   23650    282.68611    233.45809   -3115.2697   -2694.7955    433.95378     12131.59 
   23700    278.87904    233.42374   -3114.1246   -2699.3131    471.01415    12138.104 
   23750    293.56099    233.82589   -3127.5298   -2690.8801     -42.2273    12144.733 
   23800    291.11452    233.77209   -3125.7364   -2692.7257   -29.937005    12151.247 
   23850    292.01069    233.71455   -3123.8185   -2689.4747   -94.295995    12157.604 
   23900    293.94081    233.80143   -3126.7144   -2689.4997   -273.47149    12163.772 
   23950    298.63764    233.88463   -3129.4878   -2685.2869   -424.46571    12169.655 
   24000     295.0314    233.68265   -3122.7549   -2683.9181   -344.98334    12175.174 
   24050    294.76494    228.73442   -3124.4808   -2686.0403   -438.87588    12180.336 
   24100    289.55005    228.53421   -3117.8071   -2687.1233   -287.46166     12185.12 
   24150    294.84678    228.82862   -3127.6206   -2689.0584   -526.04944    12189.553 
   24200    284.19819    228.45719   -3115.2395   -2692.5163   -358.34289    12193.577 
   24250    294.87223     228.8092   -3126.9733   -2688.3732   -628.50636    12197.192 
   24300    292.61009    228.79159   -3126.3863    -2691.151   -557.87471    12200.319 
   24350    294.44895     228.7786   -3125.9535    -2687.983   -598.10347    12202.958 
   24400    297.88877     228.9583   -3131.9434   -2688.8564   -750.12562    12205.076 
   24450    292.78327    228.74813   -3124.9377   -2689.4448   -615.30544    12206.613 
   24500    295.22875    228.77908   -3125.9694    -2686.839   -656.31679    12207.599 
   24550    291.03457    228.64684   -3121.5612   -2688.6694   -544.18286     12208.04 
   24600    302.57278    229.00227   -3133.4089   -2683.3548   -876.97804     12207.94 
   24650    288.51095    228.48294   -3116.0979   -2686.9597    -459.2095     12207.21 
   24700    305.48645    229.01142   -3133.7141   -2679.3262   -877.27269    12205.942 
   24750    313.33751    229.46412   -3148.8039   -2682.7381   -1198.6469    12203.969 
   24800      297.246    228.90206   -3130.0686   -2687.9377   -651.17184    12201.152 
   24850    281.86001    228.34116    -3111.372   -2692.1266   -64.321576    12197.743 
   24900    286.44646    228.42915   -3114.3051   -2688.2377   -130.75051    12194.031 
   24950    286.66563    228.35529    -3111.843   -2685.4496   -122.62394        12190 
   25000    287.85395    228.38345   -3112.7817   -2684.6208    -143.7676    12185.645 
   25050    304.89708    223.87031   -3129.0103    -2675.499   -538.52314    12180.942 
   25100    313.21085    224.13554   -3137.8514    -2671.974   -750.94905    12175.677 
   25150    302.04769    223.86861   -3128.9538   -2679.6807   -482.18578    12169.742 
   25200    309.88585    224.11021   -3137.0071   -2676.0754   -640.63301     12163.21 
   25250    286.75428    223.41581   -3113.8603    -2687.335    115.22396    12156.092 
   25300     286.4025    223.27181   -3109.0603   -2683.0583    346.95171     12148.72 
   25350    298.37608    223.69344   -3123.1145   -2679.3027    143.92078    12141.225 
   25400    292.94005    223.60672   -3120.2238   -2684.4977     378.6314    12133.532 
   25450    295.73444    223.63806   -3121.2687   -2681.3862    431.36064    12125.757 
   25500    312.98537    224.22616    -3140.872   -2675.3299    35.998832    12117.905 
   25550    302.04343    223.86878   -3128.9593   -2679.6926    479.18033    12109.812 
   25600    302.40663      223.927      -3130.9    -2681.093     512.1278    12101.662 
   25650    316.18972    224.35952   -3145.3172   -2675.0089    199.20032    12093.466 
   25700    301.71927    223.85943   -3128.6477   -2679.8631    816.00227    12085.126 
   25750    296.99805     223.6794   -3122.6466   -2680.8845     1084.534    12076.912 
   25800    310.07261    224.08429    -3136.143   -2674.9334    814.85411    12068.943 
   25850    315.96485    224.31912   -3143.9706   -2673.9968     715.2128    12061.124 
   25900    311.98593    224.17197   -3139.0656   -2675.0101    964.44532    12053.407 
   25950    315.69929    224.32246   -3144.0819   -2674.5031    904.87629    12045.888 
   26000    311.46879    224.21457   -3140.4857   -2677.1994    997.06839    12038.581 
   26050    323.60337    224.56084   -3152.0279   -2670.6924    783.34557    12031.483 
   26100    308.06746    224.04593   -3134.8644   -2676.6374    1434.1123    12024.571 
   26150    306.53675    223.98253    -3132.751   -2676.8008    1550.4921    12018.117 
   26200    312.64898    224.18438   -3139.4794   -2674.4377     1370.723    12012.188 
   26250    322.01009     224.6485   -3154.9499   -2675.9843    1085.8298    12006.686 
   26300    314.80748    224.41362   -3147.1208   -2678.8685    1320.0976    12001.528 
   26350    313.73804    224.42621   -3147.5402   -2680.8786    1377.9848    11996.777 
   26400    303.60144    224.06356   -3135.4521    -2683.868    1750.1411    11992.513 
   26450    309.49488    224.25696   -3141.8987   -2681.5485    1651.4558    11988.886 
   26500    309.81917    224.22925   -3140.9749   -2680.1424       1621.2    11985.869 
   26550    310.08659    224.27318   -3142.4392   -2681.2089    1540.0751    11983.457 
   26600    326.36025    224.90961   -3163.6537   -2678.2176    1005.8401    11981.559 
   26650    313.47092    224.50237   -3150.0789   -2683.8147    1395.7907     11979.98 
   26700    314.88887    224.62441   -3154.1469   -2685.7736    1305.3943    11978.878 
   26750    312.49263     224.5852     -3152.84   -2688.0309    1333.4844    11978.242 
   26800    310.12877    224.61085   -3153.6949   -2692.4019    1389.7844    11978.068 
   26850    309.08599    224.63789   -3154.5965   -2694.8545    1361.7295    11978.383 
   26900    303.98033    224.52845   -3150.9483   -2698.8006    1456.7757    11979.198 
   26950     302.0847    224.44158   -3148.0527   -2698.7246    1476.5627    11980.568 
   27000    301.94333    224.48674   -3149.5581   -2700.4403    1363.0858    11982.492 
   27050    308.85804    224.75294   -3158.4315   -2699.0286    1043.4386    11984.925 
   27100    319.60822    225.13618   -3171.2059   -2695.8129     653.5085    11987.697 
   27150    305.05972    224.74444   -3158.1478   -2704.3946    971.75658    11990.646 
   27200    304.86809    224.81511   -3160.5038   -2707.0356     886.7329    11993.871 
   27250    289.26169    224.40921   -3146.9738    -2716.719    1211.9429    11997.402 
   27300    284.84978    224.30377    -3143.459   -2719.7665    1181.3241    12001.362 
   27350    294.93113    224.68358   -3156.1192   -2717.4315    693.85852    12005.737 
   27400    295.10294    224.70359   -3156.7864   -2717.8432    541.05828    12010.317 
   27450     291.4295    224.66029   -3155.3431   -2721.8638    535.48462     12015.01 
   27500    292.07022     224.7077   -3156.9235   -2722.4912    406.44375    12019.807 
   27550    300.74027    225.00319    -3166.773   -2719.4446    96.319307     12024.62 
   27600    286.51141    224.57632   -3152.5441   -2726.3801    427.77723    12029.351 
   27650    301.51637    225.07908   -3169.3027     -2720.82   -79.181712    12034.062 
   27700     294.5452    224.85955   -3161.9852   -2723.8715    93.030999    12038.599 
   27750    281.12923       224.41   -3147.0001   -2728.8416    612.28109    12043.024 
   27800    287.70774    224.63264   -3154.4213   -2726.4778    393.69328    12047.551 
   27850     297.6308    224.99145   -3166.3818   -2723.6786   -82.182029    12052.108 
   27900    292.96814    224.84484   -3161.4947   -2725.7268    11.846959    12056.453 
   27950     284.3866    224.55052   -3151.6839   -2728.6804    250.02898    12060.627 
   28000    292.07027    224.85199    -3161.733   -2727.3007   -128.53537    12064.719 
   28050    292.23226    224.85308   -3161.7695   -2727.0962   -205.35893    12068.563 
   28100    295.37815     224.9055   -3163.5166    -2724.164   -243.17562    12072.112 
   28150    288.94197    224.74303    -3158.101   -2728.3217   -48.545578    12075.356 
   28200    294.26079    224.86988   -3162.3294   -2724.6387   -231.68054    12078.362 
   28250    292.34249    224.74977   -3158.3258   -2723.4885   -171.85264    12081.058 
   28300    278.52129    224.24756   -3141.5852   -2727.3059    234.32536    12083.495 
   28350    290.41165    224.59672   -3153.2241   -2721.2588   -198.69293    12085.805 
   28400    281.46287    224.30789   -3143.5962   -2724.9415    -58.99525    12087.848 
   28450    293.40478    224.75745   -3158.5817   -2722.1643   -443.68501    12089.629 
   28500    292.12227    224.64962   -3154.9873   -2720.4776    -318.0157    12090.997 
   28550    279.55201    224.25515   -3141.8384   -2726.0259    104.32811    12092.008 
   28600    288.62517     224.6837   -3156.1233   -2726.8152    -208.6919    12092.825 
   28650    292.09524    224.78881   -3159.6269   -2725.1573   -409.90688    12093.345 
   28700    305.29567    225.10386   -3170.1285   -2716.0244   -692.76803    12093.398 
   28750    279.55684    224.18544   -3139.5148   -2723.6952    205.84653    12092.919 
   28800    283.46078    224.33057   -3144.3523   -2722.7258    151.84777    12092.282 
   28850    286.36696    224.30535   -3143.5115   -2717.5624    105.79652    12091.511 
   28900    273.73753    223.81195    -3127.065   -2719.9012    484.05231    12090.598 
   28950    288.95373    224.34954   -3144.9846   -2715.1878    4.3278176    12089.678 
   29000    288.17332    224.28809   -3142.9362   -2714.3002    80.597401    12088.559 
   29050    279.59922    228.96306   -3132.1022   -2716.2195    430.96455    12087.282 
   29100    297.93375    229.52825   -3150.9418   -2707.7879   -58.825784    12085.979 
   29150    305.06738    229.78149    -3159.383   -2705.6184   -259.55383    12084.439 
   29200    293.82539    229.43633   -3147.8778   -2710.8348     120.3596    12082.569 
   29250    290.07472    229.26864   -3142.2881   -2710.8239    362.43129    12080.537 
   29300    287.21291    229.04744   -3134.9148   -2707.7073    453.27253    12078.476 
   29350    297.15016    229.37595   -3145.8651   -2703.8768    158.38153    12076.402 
   29400    288.22194    229.04122   -3134.7074   -2705.9991    480.14489    12074.234 
   29450    292.91364    229.29283   -3143.0945   -2707.4077    418.56548    12072.069 
   29500    294.42073    229.21831   -3140.6103   -2702.6817    478.53269    12069.926 
   29550    299.51872    229.34076    -3144.692   -2699.1806    378.42424    12067.805 
   29600    307.33046    229.57647   -3152.5491   -2695.4183    251.45542    12065.647 
   29650    290.94299    228.95332   -3131.7773   -2699.0217    786.48568    12063.444 
   29700    301.65337    229.36959   -3145.6529   -2696.9663    453.00597    12061.378 
   29750    314.32036    229.81806   -3160.6019   -2693.0742    58.131347    12059.334 
   29800     302.3191    229.25362   -3141.7872   -2692.1105    534.67155    12057.132 
   29850    296.34668    228.95347   -3131.7822    -2690.989    837.93096     12054.97 
   29900    303.72651    229.19136    -3139.712   -2687.9419    638.18961    12053.011 
   29950    296.23798     228.9755   -3132.5167   -2691.8851    889.29773    12051.192 
   30000    298.46777    228.99288   -3133.0958   -2689.1477    1015.1708    12049.617 
   30050    296.59762    228.95405   -3131.8018   -2690.6353    1154.5402     12048.37 
   30100    305.73173     229.3541   -3145.1365   -2690.3837    871.45828    12047.488 
   30150    307.01038    229.36125   -3145.3751   -2688.7205    807.62803     12046.88 
   30200    314.38184    229.54284   -3151.4279   -2683.8087    591.11644     12046.46 
   30250    296.15908    228.86249   -3128.7497   -2688.2355    1254.7563    12046.179 
   30300    304.02832    229.10044   -3136.6812   -2684.4621    1047.0637    12046.301 
   30350    313.08735    229.32032   -3144.0108   -2678.3171    637.58566    12046.767 
   30400    312.39435     229.2893   -3142.9765   -2678.3136    654.55597    12047.374 
   30450    302.39949    228.80974   -3126.9913    -2677.195    1072.5165    12048.137 
   30500    295.06956    228.67538   -3122.5127   -2683.6191     1233.437    12049.242 
   30550    298.87092    228.83655   -3127.8849   -2683.3371    1063.6918    12050.798 
   30600    304.24409    229.01545   -3133.8483   -2681.3082    906.73217    12052.715 
   30650    312.10611    229.29224   -3143.0746   -2678.8404    729.82446    12054.897 
   30700     310.6361    229.16575   -3138.8582   -2676.8105    775.40039    12057.281 
   30750    309.19192    229.14132   -3138.0439   -2678.1443    815.44969    12059.861 
   30800    297.93203     228.7609   -3125.3635   -2682.2121    1144.1571    12062.714 
   30850    309.28669    229.15468   -3138.4893   -2678.4488    779.07625    12065.943 
   30900      305.188    229.03512   -3134.5041   -2680.5601    883.54191     12069.42 
   30950    303.57829    228.93842   -3131.2806   -2679.7309    866.62568    12073.161 
   31000    299.02412    228.76984   -3125.6614   -2680.8856    916.20036    12077.187 
   31050     304.3926    228.99008   -3133.0028   -2680.2419    730.69441    12081.487 
   31100    297.43405    228.73617   -3124.5389   -2682.1283    848.40578    12086.017 
   31150    300.21244    228.69912    -3123.304   -2676.7608    763.09571     12090.81 
   31200    298.00179    228.67781   -3122.5936   -2679.3385    772.75408     12095.83 
   31250    307.02179    229.03021   -3134.3404   -2677.6687    396.54213    12101.061 
   31300    301.11969    228.88293   -3129.4311   -2681.5384    454.82351    12106.346 
   31350    300.92016    228.80418   -3126.8059     -2679.21    461.82505    12111.693 
   31400    295.43388    228.63611   -3121.2035    -2681.768    523.04162    12117.117 
   31450    289.60886    228.53516   -3117.8387   -2687.0675    557.47078    12122.652 
   31500    302.81787    228.90982   -3130.3273   -2679.9087    132.85735    12128.299 
   31550    306.65767    229.01652   -3133.8841   -2677.7541    112.12245    12133.854 
   31600    295.97789    228.60289   -3120.0964   -2679.8517    476.11222    12139.323 
   31650    308.26108    228.99772   -3133.2573   -2674.7423    140.78497    12144.816 
   31700    285.91185    228.23538    -3107.846   -2682.5738    756.96378     12150.28 
   31750     296.6561    228.63598   -3121.1994   -2679.9459    289.30458    12155.922 
   31800    303.15995    228.83922    -3127.974   -2677.0465   -120.39638    12161.545 
   31850    306.06409      228.959   -3131.9665   -2676.7194   -344.12451    12166.925 
   31900    306.42108    228.87808   -3129.2693   -2673.4911   -340.35766    12171.957 
   31950    298.53329    228.62805   -3120.9351   -2676.8894     -128.055    12176.636 
   32000     295.1596    228.51594    -3117.198   -2678.1704   -64.950549    12181.053 
   32050    298.29999    228.65159   -3121.7198   -2678.0212   -246.58688    12185.241 
   32100    307.51401     228.9654     -3132.18   -2674.7762   -566.26705    12189.087 
   32150    290.22921    228.26796   -3108.9319    -2677.238   -62.836872     12192.48 
   32200    296.34949    228.48716   -3116.2388   -2675.4414   -333.39602    12195.612 
   32250    300.88446    228.49621   -3116.5404   -2668.9975   -472.24149    12198.381 
   32300    294.74501    228.32369   -3110.7896   -2672.3787   -234.31027    12200.692 
   32350    299.25208    228.47993   -3115.9977   -2670.8829   -358.83812    12202.647 
   32400    302.30204     228.5769     -3119.23   -2669.5787   -435.10317    12204.194 
   32450    297.48529    228.40546   -3113.5155   -2671.0287   -250.44868    12205.322 
   32500    293.60448     228.3702   -3112.3402   -2675.6257   -93.260088      12206.1 
   32550    281.18326    227.93679   -3097.8929   -2679.6541    215.72332    12206.642 
   32600     305.3123    228.67168   -3122.3893   -2668.2604    -510.8346    12207.029 
   32650    293.75595    228.29378   -3109.7927    -2672.853   -80.960489    12206.994 
   32700     292.9223     228.2346   -3107.8199   -2672.1202    58.966365    12206.677 
   32750    299.15987    228.36365   -3112.1216    -2667.144   -68.500213    12206.173 
   32800    308.02376    228.55817   -3118.6056   -2660.4436   -330.69055    12205.409 
   32850    321.12226    228.95366   -3131.7886   -2654.1436    -707.0405    12204.222 
   32900    289.06884    227.85098   -3095.0326   -2665.0646    296.02961    12202.508 
   32950    301.14982     228.2343     -3107.81   -2659.8725   -10.688304    12200.659 
   33000    321.31492    228.85231   -3128.4103   -2650.4787   -571.96175    12198.575 
   33050    310.44439    233.48662   -3116.2206   -2654.4581   -202.71162    12196.004 
   33100     294.0861    232.94012   -3098.0039   -2660.5732    385.70685     12193.11 
   33150    286.83254     232.6195   -3087.3166    -2660.675    712.72025      12190.2 
   33200    304.38175    233.14173   -3104.7245   -2651.9797    299.84527    12187.428 
   33250    314.63259    233.39836   -3113.2787   -2645.2865    185.94435    12184.614 
   33300    311.97871    233.23567   -3107.8556   -2643.8109    421.05229    12181.692 
   33350    310.09547    233.21705    -3107.235   -2645.9915    515.80617    12178.761 
   33400    307.51708    233.04985   -3101.6616   -2644.2533    672.96725    12175.896 
   33450    311.42587    233.18092   -3106.0306   -2642.8082    540.43538    12173.146 
   33500    300.92734    232.68502   -3089.5008   -2641.8941    880.46662    12170.514 
   33550    310.89708    233.10099   -3103.3664   -2640.9306    642.72391    12168.116 
   33600    323.60937    233.44388    -3114.796   -2633.4516    368.14557    12165.853 
   33650    325.12871    233.40669   -3113.5564   -2629.9521    427.83373    12163.566 
   33700    320.86951     233.3399   -3111.3299   -2634.0608    561.00736    12161.275 
   33750     306.7119    232.74127   -3091.3756   -2635.1648    1013.1099    12159.102 
   33800    308.70685    232.77202   -3092.4005   -2633.2225    991.56821    12157.227 
   33850    304.55711     232.5642   -3085.4735   -2632.4678    1144.6319     12155.69 
   33900    317.40901    233.05689   -3101.8963   -2629.7745    696.52788    12154.513 
   33950    312.00137    232.95538   -3098.5126   -2634.4342     894.6549    12153.524 
   34000    304.60617    232.70098   -3090.0327   -2636.9541    1297.3774    12152.833 
   34050    320.08173    233.24396   -3108.1321   -2632.0348    839.80887    12152.602 
   34100    330.35356    233.45275   -3115.0916   -2623.7157    538.67688    12152.615 
   34150    321.30927    233.13038    -3104.346   -2626.4228    790.05648    12152.731 
   34200    326.14319    233.28276   -3109.4252    -2624.312    694.20709    12153.013 
   34250    307.40981     232.7053   -3090.1767   -2632.9279    1188.3794    12153.497 
   34300    329.45266    233.45278   -3115.0928   -2625.0569    517.31876    12154.348 
   34350    329.35083    233.44925   -3114.9751   -2625.0907    459.08508    12155.325 
   34400    321.08995    233.15667   -3105.2225   -2627.6255     673.8683    12156.336 
   34450    299.19276    232.45835    -3081.945   -2636.9184    1287.7239    12157.516 
   34500    309.64627    232.89266    -3096.422   -2635.8466    868.85089    12159.143 
   34550    319.02965    233.28919   -3109.6397   -2635.1073    481.32846    12161.041 
   34600    316.60977    233.17366   -3105.7887   -2634.8556    542.49507    12163.017 
   34650    296.44662    232.51271   -3083.7571   -2642.8152    1110.3213    12165.126 
   34700    297.63443    232.61864    -3087.288   -2644.5794    1059.7587    12167.602 
   34750    299.07156    232.70169   -3090.0565   -2645.2102    1008.8974     12170.48 
   34800    301.76762    232.78921   -3092.9737   -2644.1173    953.29733    12173.724 
   34850    300.31551    232.78886   -3092.9621   -2646.2655    935.62343    12177.315 
   34900    324.46627    233.60357   -3120.1191   -2637.5001     75.20986    12181.161 
   34950    317.61662    233.34273   -3111.4242   -2638.9936    164.85122    12184.916 
   35000    324.33636    233.66022   -3122.0073   -2639.5815   -106.65347    12188.514 
   35050    294.98459    237.62139   -3087.3798   -2648.6125    781.92578    12191.942 
   35100     308.6642    238.12132   -3104.0441   -2644.9295    379.39903    12195.545 
   35150    306.86261      238.115   -3103.8334   -2647.3986    368.85459    12199.216 
   35200    289.92967    237.56882   -3085.6274    -2654.379    737.23956    12202.934 
   35250     299.0449    237.95804   -3098.6014   -2653.7948     306.5466    12206.829 
   35300    300.01655    238.10219   -3103.4063   -2657.1544    93.423616    12210.729 
   35350    294.54286    237.88235   -3096.0785   -2657.9683    172.88149    12214.535 
   35400    302.11167     238.2372   -3107.9065   -2658.5383   -185.80438    12218.247 
   35450    300.93073    238.16319   -3105.4396   -2657.8279   -253.22359    12221.719 
   35500    305.16248    238.31237   -3110.4122   -2656.5061    -392.5096    12224.859 
   35550    294.69114    238.04145   -3101.3818   -2663.0511   -145.46135    12227.641 
   35600    293.86013    237.94861    -3098.287   -2661.1923   -151.81566    12230.152 
   35650    289.99283     237.8436   -3094.7865   -2663.4442   -103.75178    12232.417 
   35700    288.01597    237.85006    -3095.002   -2666.6001   -128.06743    12234.445 
   35750    279.10685    237.60341   -3086.7805   -2671.6302    132.84714    12236.251 
   35800    300.57686     238.3379   -3111.2634   -2664.1781   -434.47217    12237.902 
   35850    289.96806    237.95068   -3098.3559   -2667.0504   -112.99326    12239.204 
   35900    294.82806     238.1801   -3106.0034    -2667.469   -338.02516    12240.227 
   35950    290.82656    238.02299   -3100.7664    -2668.184   -265.96128    12240.906 
   36000    286.33635    237.89339   -3096.4464   -2670.5428   -159.59606    12241.257 
   36050    300.49407    238.37877   -3112.6257   -2665.6635   -582.35423    12241.296 
   36100    293.91878    238.19189   -3106.3962   -2669.2143   -374.23503    12240.871 
   36150    283.17377    237.78111   -3092.7036   -2671.5041    42.499802    12240.052 
   36200    280.44296     237.7256   -3090.8535   -2673.7158    113.87884    12239.047 
   36250    293.94687    238.24189   -3108.0629   -2670.8392   -417.31557    12237.891 
   36300    297.59129    238.32559    -3110.853   -2668.2086   -591.42233    12236.336 
   36350     289.0805    237.99359   -3099.7863   -2669.8009   -257.01062    12234.299 
   36400    294.48155    238.15655   -3105.2184   -2667.1994   -338.19774    12231.912 
   36450    306.34609    238.51715   -3117.2382   -2661.5716    -634.0066    12229.126 
   36500    291.14348    238.04511   -3101.5038   -2668.4499   -150.85724    12225.841 
   36550    279.97069    237.71885   -3090.6285   -2674.1933    158.36722    12222.252 
   36600    287.44836     238.0219   -3100.7302   -2673.1725    -83.62132     12218.54 
   36650    282.82299     237.8394   -3094.6466   -2673.9689    181.35108    12214.626 
   36700    293.85959    238.24033    -3108.011   -2670.9172   -93.267932    12210.605 
   36750    305.49305    238.58806   -3119.6019   -2665.2041   -426.33044    12206.337 
   36800    291.48016    238.13778   -3104.5927   -2671.0381    64.480868    12201.663 
   36850    298.76716    238.44182   -3114.7274   -2670.3339   -93.510117    12196.794 
   36900    304.36417    238.48907   -3116.3023   -2663.5837   -86.966426    12191.686 
   36950    289.57794    238.03122   -3101.0407   -2670.3155    418.79265    12186.353 
   37000    308.27455    238.75601   -3125.2002   -2666.6651    -196.9679    12180.963 
   37050    300.95086    233.52614    -3117.538   -2669.8964    7.8228203    12175.309 
   37100    291.61338    233.16295   -3105.4316   -2671.6788     366.3164    12169.455 
   37150    315.19819    233.90825   -3130.2749   -2661.4415   -295.62243    12163.505 
   37200    300.96595    233.40482    -3113.494     -2665.83    250.07357    12157.238 
   37250    302.17009    233.50116   -3116.7053   -2667.2502    270.63575    12150.847 
   37300    308.89378    233.68378   -3122.7927   -2663.3366     80.14644    12144.371 
   37350    293.79414     233.1962   -3106.5399   -2669.5434     580.8504    12137.759 
   37400    296.72886    233.38474   -3112.8245   -2671.4628    604.70324    12131.203 
   37450    298.40196    233.43788   -3114.5961   -2670.7458     684.9485    12124.775 
   37500    292.34798    233.23448   -3107.8159   -2672.9704    904.62981    12118.501 
   37550     304.3325    233.62503   -3120.8343   -2668.1628    578.75148    12112.447 
   37600    294.73163    233.28236   -3109.4119   -2671.0209    989.06256    12106.538 
   37650    303.19586    233.49893   -3116.6312   -2665.6503    874.62918    12100.916 
   37700    317.89969    234.05279   -3135.0931   -2662.2414    458.45477    12095.538 
   37750    308.84107    233.76764   -3125.5881   -2666.2104    858.15092    12090.219 
   37800    299.14119    233.42954   -3114.3181   -2669.3683    1236.0753    12085.138 
   37850    324.30914    234.34103    -3144.701   -2662.3157    471.97046    12080.428 
   37900    309.54793    233.84688   -3128.2294   -2667.8004    1011.8005    12075.831 
   37950    302.57766    233.67604   -3122.5348   -2672.4734    1280.4455    12071.538 
   38000    315.17319    234.00922   -3133.6407   -2664.8445     909.6968    12067.684 
   38050    309.69457    233.85031   -3128.3436   -2667.6964    1062.8157    12064.132 
   38100    309.46663    233.97379   -3132.4598   -2672.1516    1079.1347    12060.918 
   38150    316.83018    234.10279   -3136.7595   -2665.4986    961.85881    12058.064 
   38200    297.34596    233.42638   -3114.2126    -2671.933    1559.2704    12055.547 
   38250    297.30823    233.43236   -3114.4121   -2672.1886    1452.0849    12053.606 
   38300    315.93578    234.10764   -3136.9212   -2666.9906    879.31399    12052.217 
   38350    309.88982    233.95083   -3131.6942   -2670.7566     1075.677    12051.133 
   38400     305.3567    233.78043   -3126.0144   -2671.8195    1208.2275    12050.416 
   38450    301.49838    233.70481   -3123.4936   -2675.0376    1248.6838    12050.146 
   38500    306.55567    233.91177   -3130.3923    -2674.414     1082.446    12050.318 
   38550    313.51608    234.14244   -3138.0813   -2671.7499    819.19426    12050.874 
   38600    320.77317    234.33058   -3144.3526   -2667.2269    655.57546    12051.672 
   38650    299.53335    233.67457   -3122.4856   -2676.9524    1310.9163    12052.672 
   38700     306.9832    234.06395    -3135.465   -2678.8507    1004.4955    12054.114 
   38750    300.16255    233.79484   -3126.4947   -2680.0257    1129.2357    12055.934 
   38800    313.98394    234.32358   -3144.1194   -2677.0921    714.23431    12058.108 
   38850    300.24294    233.81853   -3127.2843   -2680.6956    1129.9836    12060.532 
   38900    291.06497    233.39729   -3113.2429   -2680.3058    1466.4519    12063.363 
   38950    297.44308    233.67219   -3122.4063   -2679.9822    1192.6751     12066.76 
   39000    307.80701    234.08479   -3136.1596     -2678.32     701.7072    12070.596 
   39050    309.23669    229.11465   -3137.1549   -2677.1887    581.07366    12074.626 
   39100    306.24021    228.94691   -3131.5636   -2676.0545    636.91461    12078.783 
   39150    301.93711    228.85725   -3128.5751   -2679.4665    657.96869    12083.061 
   39200    302.36959    228.94802   -3131.6006   -2681.8487    556.50771     12087.48 
   39250    304.97594    229.04118   -3134.7059   -2681.0773    425.23974    12092.004 
   39300    304.39025    229.02528    -3134.176   -2681.4186    367.51197    12096.578 
   39350    301.52431    228.97452   -3132.4841   -2683.9896    426.41768     12101.16 
   39400    295.56022     228.8298     -3127.66   -2688.0365    546.34473    12105.769 
   39450    303.32756     229.0488   -3134.9599   -2683.7831    199.96795    12110.437 
   39500    290.99639    228.62623   -3120.8743   -2688.0393    514.77048    12115.051 
   39550    293.79576    228.73253   -3124.4177   -2687.4188    496.74357    12119.735 
   39600    296.45369    228.85602    -3128.534   -2687.5816    393.18618    12124.492 
   39650    300.70858    229.02091   -3134.0304   -2686.7491    120.37144    12129.249 
   39700    306.04585    229.06377    -3135.459    -2680.239   -164.65691    12133.888 
   39750    293.28706    228.64445   -3121.4815   -2685.2392    126.33903    12138.264 
   39800    293.94785    228.67339   -3122.4463   -2685.2211    133.79921    12142.483 
   39850    298.99394    228.75136   -3125.0454   -2680.3146   -15.692963    12146.573 
   39900    299.42624    228.78612   -3126.2042   -2680.8303   -106.60092    12150.462 
   39950    303.46036    229.00227    -3133.409   -2682.0347   -281.90074    12154.086 
   40000     287.7785    228.54338   -3118.1126   -2690.0639    148.85854    12157.391 
   40050    296.14964     233.7736   -3125.7867   -2685.2866   -64.883391    12160.543 
   40100    288.22731    233.47972   -3115.9907   -2687.2744    152.03727     12163.51 
   40150    293.04626    233.67426   -3122.4752   -2686.5911   -97.708781    12166.345 
   40200    303.28348    233.90984   -3130.3281   -2679.2169     -465.319    12168.942 
   40250    285.49773    233.35714   -3111.9048   -2687.2486   -2.7085315    12171.145 
   40300    279.21852    233.19519   -3106.5064     -2691.19    211.48784    12173.143 
   40350    291.86438    233.65965   -3121.9883   -2687.8622   -219.10246    12175.049 
   40400    294.16534    233.68423   -3122.8077   -2685.2591   -321.70677    12176.672 
   40450     301.0734    233.93591    -3131.197   -2683.3731   -553.18892    12177.912 
   40500    299.64976    233.87043   -3129.0142   -2683.3079   -480.22936    12178.679 
   40550    296.80054    233.76027   -3125.3425   -2683.8742   -344.86416    12178.985 
   40600    293.09269    233.67915   -3122.6382   -2686.6851   -248.31252    12178.908 
   40650    280.04417    233.20217    -3106.739   -2690.1945    163.51368    12178.528 
   40700     295.5032    233.74839   -3124.9462   -2685.4076   -313.94397    12177.992 
   40750      305.998    234.14179   -3138.0597   -2682.9108   -678.05086    12177.096 
   40800    289.59567    233.54574   -3118.1913   -2687.4397   -10.018783    12175.679 
   40850    276.48687    233.07975   -3102.6583    -2691.405    508.62781    12174.056 
   40900    286.51142    233.36624   -3112.2081   -2686.0441    219.80907    12172.475 
   40950    301.04915    233.87953   -3129.3176   -2681.5298   -262.53536    12170.789 
   41000    296.68405    233.64916   -3121.6388   -2680.3438   -87.994204    12168.802 
   41050    296.86296    238.67553   -3122.5176   -2680.9564   -98.009335    12166.562 
   41100    289.85178    238.39155   -3113.0515    -2681.919    176.13918    12164.101 
   41150    289.56334    238.34501   -3111.5003   -2680.7968    321.85492    12161.538 
   41200    289.19808    238.39723    -3113.241   -2683.0808    407.92312    12158.959 
   41250       285.33    238.27265   -3109.0885   -2684.6817    631.86876    12156.424 
   41300    287.72823    238.28964   -3109.6546   -2681.6806    644.21942    12154.038 
   41350    295.26077     238.5743   -3119.1433   -2679.9653     383.7328    12151.805 
   41400    287.25218    238.37829   -3112.6097   -2685.3439    638.00808    12149.618 
   41450    291.42086    238.47936   -3115.9786   -2682.5122    574.91719     12147.57 
   41500     294.9535    238.51757   -3117.2522   -2678.5313    489.38539    12145.656 
   41550    297.35937    238.50003   -3116.6676    -2674.368    403.85399    12143.818 
   41600    295.06576    238.36746   -3112.2488   -2673.3608    478.89164    12142.011 
   41650    298.93551    238.50936   -3116.9786   -2672.3347     415.6531    12140.265 
   41700    296.62948    238.44421   -3114.8069   -2673.5931    564.54867    12138.575 
   41750    293.68056    238.29802   -3109.9339   -2673.1063    783.13645    12136.982 
   41800    296.11422    238.40213   -3113.4044    -2672.957    734.95859    12135.614 
   41850    304.73467    238.61139   -3120.3796   -2667.1099    500.63962    12134.443 
   41900    301.73805    238.51266   -3117.0886   -2668.2761    580.02804     12133.36 
   41950    300.58263    238.48086   -3116.0288   -2668.9349    597.75334    12132.396 
   42000     292.5523    238.24603   -3108.2011   -2673.0518    835.80631    12131.583 
   42050    292.74599    238.24749   -3108.2498   -2672.8123    887.56097    12131.019 
   42100    303.05724    238.63518   -3121.1728   -2670.3981    578.49471    12130.733 
   42150    307.22342    238.70323   -3123.4411   -2666.4695     417.9561    12130.593 
   42200    318.71348    239.04977   -3134.9924   -2660.9302   -7.5359114    12130.457 
   42250    312.60751    238.74716   -3124.9054   -2659.9254    170.80891    12130.159 
   42300    301.56613    238.36325   -3112.1084   -2663.5516    547.99545     12129.78 
   42350    306.75049    238.54424   -3118.1413   -2661.8732    441.51971    12129.485 
   42400    313.17118    238.79827    -3126.609   -2660.7906    349.50167    12129.241 
   42450    300.40412    238.34596    -3111.532   -2664.7037    728.08218     12129.03 
   42500    302.48779    238.39752   -3113.2506   -2663.3229    591.51594    12128.993 
   42550     308.0051    238.51254   -3117.0848   -2658.9505    498.30954    12129.082 
   42600      286.668    237.78335   -3092.7784   -2666.3814    1217.6253    12129.313 
   42650    303.84746    238.35385    -3111.795    -2659.845     729.9208    12129.946 
   42700    298.76777    238.21105   -3107.0349   -2662.6405    816.23657    12130.831 
   42750    298.20887    238.17727   -3105.9089   -2662.3458    748.79766    12131.959 
   42800    308.76185    238.51764   -3117.2548   -2657.9949    390.90453      12133.3 
   42850    318.89736    238.92022    -3130.674   -2656.3384     83.46667    12134.663 
   42900    297.78106    238.12174   -3104.0579   -2661.1311    777.10286    12135.949 
   42950    296.80501    238.16442   -3105.4807   -2664.0058     799.8624    12137.422 
   43000    292.02768    238.06381   -3102.1272   -2667.7581    912.43447    12139.163 
   43050     299.9917    238.28326   -3109.4421   -2663.2272    665.43068    12141.195 
   43100    308.13281    238.65515   -3121.8382    -2663.514    295.44572    12143.407 
   43150    303.81621    238.52688   -3117.5628   -2665.6592    383.58152     12145.62 
   43200    287.78466    237.90151   -3096.7171   -2668.6592    860.54211    12147.895 
   43250    313.64811    238.71639   -3123.8797   -2657.3519    67.651926    12150.386 
   43300    298.02039    238.15583   -3105.1945   -2661.9117    481.96509    12152.803 
   43350    301.51772    238.22264   -3107.4215   -2658.9367    443.16521    12155.266 
   43400    305.88571    238.50192   -3116.7306   -2661.7488    321.76995    12157.786 
   43450    291.46854    237.98586   -3099.5285   -2665.9912    696.41709    12160.337 
   43500    296.44651    238.17559   -3105.8531   -2664.9114    419.41079    12163.059 
   43550     296.3618    238.21652   -3107.2174   -2666.4017    301.49662    12165.856 
   43600    305.62662    238.60407   -3120.1357   -2665.5393     31.27883    12168.619 
   43650    297.17395    238.21035   -3107.0118   -2664.9881    394.53592    12171.265 
   43700    303.66015    238.46431    -3115.477   -2663.8056    124.25068    12173.921 
   43750    306.12869    238.53289   -3117.7629   -2662.4197    38.815633    12176.477 
   43800    307.96951    238.57258    -3119.086   -2661.0047    46.627443    12178.866 
   43850    301.09804    238.25716   -3108.5721   -2660.7116    264.76949    12181.108 
   43900    297.37202    238.23906   -3107.9688   -2665.6505     217.1193    12183.306 
   43950    300.90903    238.39096    -3113.032   -2665.4526    41.346464    12185.432 
   44000    286.34994    237.77918   -3092.6394   -2666.7155    495.82924     12187.45 
[...]
   89400       290.33    253.38528   -3112.8427   -2680.9988    719.44858    12124.066 
   89450    280.48033    253.03004   -3101.0014   -2683.8081    1028.4739    12131.113 
   89500    286.77358    253.31304   -3110.4346   -2683.8806     692.0203    12138.513 
   89550    289.17686     253.4254   -3114.1799   -2684.0512    405.25565    12146.121 
   89600    284.87348    253.28108   -3109.3692   -2685.6415    352.91473    12153.793 
   89650    287.36602    253.34923   -3111.6411   -2684.2059    177.65547    12161.485 
   89700    284.62254    253.27587   -3109.1958   -2685.8413    247.99113    12169.122 
   89750    268.54602    252.63476   -3087.8252   -2688.3834    726.78714    12176.754 
   89800    272.91078    252.90334    -3096.778   -2690.8439     409.0523    12184.582 
   89850    271.38071    252.95182   -3098.3942   -2694.7359    318.65691    12192.486 
   89900    278.36848    253.13861   -3104.6203   -2690.5683    48.969738    12200.389 
   89950    292.58666     253.5848   -3119.4932   -2684.2927   -379.11499    12208.132 
   90000    276.33138    252.96849   -3098.9497   -2687.9277    128.33646    12215.558 
   90050     279.3314    248.10426   -3103.4752   -2687.9909   -33.975711    12222.851 
   90100    279.07029    248.02477   -3100.8258   -2685.7299   -55.693865    12229.959 
   90150    276.98479    247.85148   -3095.0492   -2683.0553   -1.4154294    12236.862 
   90200    281.05783    247.93282   -3097.7606   -2679.7084   -249.27583    12243.581 
   90250    291.09985    248.30074   -3110.0248   -2677.0358   -661.09311    12249.971 
   90300    276.30801     247.7195   -3090.6499   -2679.6627   -210.66801    12255.873 
   90350    275.99436    247.63514    -3087.838   -2677.3173   -250.61913    12261.456 
   90400    294.48016    248.27018   -3109.0058   -2670.9889   -946.42412    12266.687 
   90450    288.66529     248.0295   -3100.9835   -2671.6157   -836.13507    12271.268 
   90500    281.48265    247.73918   -3091.3059   -2672.6218   -554.15284    12275.208 
   90550    279.45204    247.62573   -3087.5242   -2671.8605   -418.76704    12278.663 
   90600     279.1557    247.66826   -3088.9421   -2673.7191   -378.48107    12281.712 
   90650    269.58683    247.34362   -3078.1207   -2677.1307    -87.68092    12284.402 
   90700    281.32165    247.70956   -3090.3188   -2671.8741   -481.23859     12286.85 
   90750    291.61846    248.00592   -3100.1972   -2666.4368    -750.9073    12288.878 
   90800    281.19469      247.563   -3085.4335   -2667.1777    -297.1684    12290.363 
   90850    286.82157    247.67587   -3089.1957   -2662.5704   -374.94222    12291.489 
   90900    279.40357    247.40283   -3080.0943   -2664.5027   -142.18396    12292.278 
   90950    274.62599    247.16075   -3072.0251   -2663.5397    62.135313    12292.839 
   91000    292.89865    247.74138   -3091.3792   -2655.7147    -510.4435    12293.244 
   91050    295.41617    252.74949   -3091.6498   -2652.2406   -575.68028     12293.25 
   91100    289.42227    252.51294   -3083.7646   -2653.2709   -305.34955     12292.81 
   91150     285.4598    252.37119   -3079.0396   -2654.4398    -57.87164    12292.056 
   91200    273.46668    251.83643   -3061.2142   -2654.4532    409.37332    12291.155 
   91250    290.60687    252.46075    -3082.025   -2649.7693   -127.62515    12290.285 
   91300    286.72624    252.25337   -3075.1123   -2648.6287   -7.3901732    12289.259 
   91350    287.52772     252.2124   -3073.7466    -2646.071    61.481304     12288.08 
   91400    286.68767    252.09541   -3069.8469   -2643.4207    186.06122    12286.806 
   91450     294.5825    252.31901   -3077.3004   -2639.1312   -9.6815608    12285.479 
   91500    289.37952    252.13611   -3071.2037   -2640.7736    183.55236    12284.036 
   91550    281.27106     251.8113   -3060.3767   -2642.0073     512.6886    12282.568 
   91600    286.65865     252.0319   -3067.7299   -2641.3469    334.60053    12281.228 
   91650    299.55156    252.33654   -3077.8847   -2632.3245   -44.004041    12279.943 
   91700    306.95531    252.60258   -3086.7526   -2630.1798    -277.7564    12278.505 
   91750    299.49415    252.40092   -3080.0308   -2634.5559    -9.558489    12276.787 
   91800    279.34404    251.62884   -3054.2946   -2638.7915     687.4287    12274.954 
   91850    283.57195    251.70251   -3056.7505   -2634.9587    595.90389    12273.331 
   91900     296.6813     252.1783     -3072.61   -2631.3191    297.97559    12271.895 
   91950    289.32348    251.91479   -3063.8265   -2633.4797    703.33598    12270.528 
   92000    293.59679    252.09581   -3069.8605   -2633.1575    673.63695     12269.38 
   92050    296.07191    252.10259   -3070.0864   -2629.7018    682.00946    12268.467 
   92100    299.13765    252.19937   -3073.3124   -2628.3678    604.39524    12267.788 
   92150    301.24103    252.25285   -3075.0949   -2627.0217     533.0886    12267.307 
   92200    301.59657    252.24614   -3074.8714   -2626.2694    486.97653    12266.981 
   92250    303.97289    252.22935   -3074.3117    -2622.175    414.55031    12266.775 
   92300    293.90089    251.86643   -3062.2143   -2625.0591    722.12528    12266.667 
   92350    302.02427    252.16612   -3072.2039   -2622.9656    397.03559    12266.773 
   92400    309.95792    252.51426   -3083.8087   -2622.7697    81.130593    12266.953 
   92450    295.99553    251.89316   -3063.1052   -2622.8343    608.39237    12267.083 
   92500    294.24829    251.87741   -3062.5803   -2624.9083    772.38375    12267.355 
   92550    294.16377     251.8683   -3062.2766   -2624.7303    846.83089    12267.913 
   92600    298.81086    251.98817   -3066.2724   -2621.8139       770.37    12268.789 
   92650    299.00434    251.95711   -3065.2369   -2620.4906    786.58273    12269.951 
   92700    305.91729    252.20168   -3073.3893   -2618.3605    503.10195    12271.374 
   92750    296.35235    251.77052   -3059.0174   -2618.2158    786.24024    12272.964 
   92800    299.45482    251.83391   -3061.1304   -2615.7141    645.29054    12274.811 
   92850    307.48522    252.05034   -3068.3446   -2610.9836    444.51532    12276.866 
   92900    301.28623    251.81322   -3060.4406   -2612.3002    696.32216    12279.038 
   92950    301.28864    251.78251   -3059.4171   -2611.2731    726.26223    12281.424 
   93000    312.36071     252.2097   -3073.6566   -2609.0437    350.87005    12284.045 
   93050    318.10795    257.35973   -3078.6576   -2605.4961    116.68649    12286.711 
   93100    313.99513    257.24671   -3074.8903   -2607.8463    252.31825    12289.311 
   93150    296.21645    256.59117   -3053.0391   -2612.4395    817.92016    12291.936 
   93200    293.40823    256.37062   -3045.6872   -2609.2647    878.05668     12294.83 
   93250    296.19414    256.46117   -3048.7056   -2608.1393     809.0545    12298.064 
   93300    299.79022    256.60908   -3053.6361   -2607.7209    776.91399    12301.619 
   93350     299.9726    256.59865   -3053.2882   -2607.1017    765.30457    12305.474 
   93400    306.33737    256.91092   -3063.6974   -2608.0438    453.61218    12309.598 
   93450    309.43719     256.8857   -3062.8568   -2602.5924    295.62234    12313.843 
   93500    296.88003    256.45371   -3048.4571   -2606.8706    648.00702     12318.14 
   93550    287.76941    256.14235   -3038.0783   -2610.0431    890.44279    12322.637 
   93600     293.9971    256.42992    -3047.664   -2610.3655    588.38203    12327.448 
   93650    294.97986     256.5267     -3050.89   -2612.1298    465.98471    12332.463 
   93700    303.37573    256.75515   -3058.5049   -2607.2565    149.08649    12337.593 
   93750    308.11823    256.84686    -3061.562   -2603.2595   -56.622956    12342.668 
   93800    309.03165    256.84497    -3061.499   -2601.8379   -98.192693    12347.573 
   93850    309.61332    256.79949   -3059.9829   -2599.4566   -93.766349    12352.276 
   93900    293.36553    256.20903   -3040.3009   -2603.9419    392.99341    12356.808 
   93950    303.32906    256.53882   -3051.2939   -2600.1149   -28.491363    12361.373 
   94000    301.28528     256.4919     -3049.73    -2601.591   -74.358749    12365.808 
   94050    309.03132    256.80716   -3060.2385   -2600.5778   -322.33571    12370.023 
   94100    309.49678    256.73845   -3057.9485   -2597.5955   -294.68138    12373.927 
   94150    291.77546    256.03747   -3034.5825   -2600.5886    296.04257    12377.571 
   94200    305.00115    256.42037   -3047.3458   -2593.6797   -114.74433    12381.172 
   94250    296.40182    256.13262   -3037.7541   -2596.8788    106.21231    12384.598 
   94300    296.98253    256.12735   -3037.5783   -2595.8393    70.108112     12387.92 
   94350    307.58487    256.46297   -3048.7657   -2591.2566   -242.25559    12391.132 
   94400    302.38298    256.21954   -3040.6512   -2590.8794    42.547221      12394.1 
   94450    289.48013    255.72745   -3024.2482   -2593.6684    495.46923    12396.955 
   94500    298.12738    256.09327   -3036.4425   -2593.0006      139.872    12399.904 
   94550    298.76459    256.12765   -3037.5882   -2593.1985     94.52328    12402.819 
   94600     307.5586    256.49527   -3049.8423   -2592.3722   -220.24462     12405.62 
   94650    302.36306    256.32479   -3044.1597   -2594.4175   -59.043336    12408.188 
   94700    292.74464    255.83643   -3027.8811   -2592.4457     414.4562    12410.602 
   94750    291.49236    255.73593   -3024.5312   -2590.9584    479.81352    12413.096 
   94800    303.93093    256.16056   -3038.6854   -2586.6112    95.190796    12415.686 
   94850    302.06088    255.97925   -3032.6416   -2583.3489    172.51528    12418.228 
   94900    317.22619    256.60266   -3053.4219    -2581.572   -446.90328    12420.673 
   94950    298.07912    255.85181   -3028.3936   -2585.0235    18.980453    12422.808 
   95000    313.69359    256.43262   -3047.7539   -2581.1584   -523.82536    12424.738 
   95050    291.13141    255.55082   -3018.3606   -2585.3247    223.86461    12426.321 
   95100    309.47334    256.13057   -3037.6857   -2577.3675   -292.54515    12427.802 
   95150    312.67419    256.26439   -3042.1464   -2577.0672   -403.01496    12429.026 
   95200    306.83075    256.05899   -3035.2997   -2578.9122   -132.15583    12429.887 
   95250      297.951    255.64768   -3021.5892   -2578.4097    195.93752    12430.555 
   95300     308.4115    255.86342   -3028.7805   -2570.0418   -36.015483    12431.158 
   95350    303.02293    255.68027   -3022.6756    -2571.952    248.48106    12431.641 
   95400    299.96468    255.62435   -3020.8118   -2574.6371    369.37482    12432.109 
   95450    304.09768    255.71838   -3023.9461   -2571.6238    297.90429    12432.644 
   95500    304.36166    255.74556    -3024.852   -2572.1371    300.05066    12433.216 
   95550    305.86193    255.73269    -3024.423   -2569.4765    314.32505     12433.81 
   95600    309.59666    255.70493   -3023.4977   -2562.9961    241.35427    12434.442 
   95650    305.06685    255.53677   -3017.8924   -2564.1285    278.65062    12435.082 
   95700    317.91533    256.02909   -3034.3032   -2561.4282    -183.1196    12435.701 
   95750    316.87908    255.90334   -3030.1113   -2558.7777    -94.23808    12436.105 
   95800    315.39528    255.83049   -3027.6829   -2558.5563    62.615582    12436.288 
   95850    288.54828    254.70809   -2990.2697    -2561.076    960.43328    12436.435 
   95900    315.98582    255.67219   -3022.4062   -2552.4012    99.637529    12436.868 
   95950     314.5368     255.6654   -3022.1801   -2554.3304    185.42492    12437.276 
   96000     305.3597    255.24233   -3008.0777   -2553.8783    623.78228    12437.665 
   96050    313.74417    255.48766   -3016.2555   -2549.5848    400.30186    12438.229 
   96100     314.9993    255.48279   -3016.0929   -2547.5553    350.50124    12438.891 
   96150    313.46014    255.41432   -3013.8106   -2547.5624    311.27679    12439.607 
   96200    322.47756     255.7806   -3026.0201   -2546.3592    7.5350868     12440.33 
   96250    309.79853    255.27092   -3009.0306   -2548.2287    483.17668    12440.966 
   96300    302.94769    255.06088   -3002.0293   -2551.4175    754.74738    12441.711 
   96350    304.81872    255.16309   -3005.4363   -2552.0416    711.34569    12442.723 
   96400    318.18562    255.60744    -3020.248    -2546.971     324.5464    12443.978 
   96450    313.97766    255.38643    -3012.881    -2545.863    419.72946     12445.31 
   96500    315.22252    255.40711   -3013.5703   -2544.7007    350.73189    12446.706 
   96550    315.77264    255.40441   -3013.4802   -2543.7924     308.4156    12448.169 
   96600    326.19773    255.77152   -3025.7172   -2540.5228    72.103399    12449.638 
   96650    312.48231     255.2577   -3008.5899   -2543.7961    544.38682    12451.042 
   96700    310.79261     255.2354   -3007.8465   -2545.5661     536.8487    12452.595 
   96750    323.46391    255.58707   -3019.5692   -2538.4411     83.98599    12454.287 
   96800    324.54286    255.63673   -3021.2243   -2538.4914    -10.55204     12455.88 
   96850    318.34181    255.46982   -3015.6608   -2542.1514    148.57006    12457.328 
   96900    321.60956    255.50953   -3016.9842   -2538.6144    102.43929    12458.711 
   96950    307.04379    254.98266    -2999.422   -2542.7176    604.45308    12460.048 
   97000    307.68342    255.08339   -3002.7797   -2545.1239    644.04792    12461.542 
   97050    302.18076    259.90995   -2996.9983   -2547.5274    875.50217    12463.293 
   97100    306.66234    260.04589   -3001.5296   -2545.3926    741.98058     12465.39 
   97150     292.3114    259.51166   -2983.7222   -2548.9311    1131.2125    12467.807 
   97200    300.88424    259.93489   -2997.8297   -2550.2872    800.52279     12470.68 
   97250    301.54414     259.9754   -2999.1799   -2550.6558    686.59172    12473.915 
   97300    302.59962    260.07326   -3002.4421   -2552.3481    564.12374    12477.416 
   97350     308.1542    260.23376    -3007.792    -2549.436    285.95422      12481.1 
   97400    316.59923     260.6102   -3020.3401   -2549.4227   -189.11096    12484.801 
   97450    305.53902    260.15822    -3005.274   -2550.8078    108.97438    12488.313 
   97500    296.99448    259.95356   -2998.4521   -2556.6953     253.8482    12491.759 
   97550    312.10746    260.45961   -3015.3202    -2551.084   -347.42103    12495.181 
   97600    306.72511    260.35296   -3011.7654    -2555.535   -302.37037    12498.314 
   97650    306.17458    260.36286   -3012.0953   -2556.6839   -346.10953    12501.146 
   97700    303.89461    260.41935   -3013.9783   -2561.9581   -361.33766    12503.645 
   97750    282.42275    259.68641   -2989.5471   -2569.4647    346.13994    12505.863 
   97800    291.23642    260.04915   -3001.6384   -2568.4463   -74.267933      12508.1 
   97850    305.87312    260.72815   -3024.2716   -2569.3085   -887.14479    12510.153 
   97900    307.18796    260.84926   -3028.3088     -2571.39   -1017.7806    12511.602 
   97950    289.52074    260.32732   -3010.9108   -2580.2706   -440.47757      12512.4 
   98000     296.1667    260.67852   -3022.6173   -2582.0918   -684.06504    12512.771 
   98050    282.93959    255.13013   -3004.3375   -2583.4863   -273.24177    12512.672 
   98100     296.9779    255.73878   -3024.6261    -2582.894   -781.69523    12512.226 
   98150    307.06902     256.1357   -3037.8567   -2581.1148   -1220.3006    12511.207 
   98200    293.77413    255.69502   -3023.1674   -2586.2006   -863.57444    12509.396 
   98250    287.25497    255.51324    -3017.108    -2589.838   -618.55165    12506.948 
   98300    292.30179    255.84091   -3028.0305   -2593.2537   -828.66474    12503.988 
   98350    297.15652    255.99598   -3033.1992   -2591.2014   -1024.4781    12500.431 
   98400    286.82001    255.67152   -3022.3839   -2595.7609   -713.36822    12496.202 
   98450    294.49181     255.9915     -3033.05   -2595.0157   -892.87078    12491.398 
   98500    280.45292    255.51299   -3017.0997   -2599.9472   -372.37687    12486.006 
   98550    274.70924    255.33753   -3011.2511   -2602.6419   -112.71822    12480.274 
   98600    293.44649    256.07354   -3035.7848   -2599.3054   -711.59269    12474.307 
   98650    291.18891    255.91861   -3030.6203   -2597.4988   -522.53904    12467.855 
   98700    289.17378    255.81657   -3027.2192   -2597.0951   -314.00142    12460.983 
   98750    291.29712    255.91663   -3030.5543   -2597.2719   -316.94966    12453.802 
   98800    286.88227    255.82032   -3027.3439   -2600.6283   -225.81095    12446.336 
   98850    288.08806    255.92757   -3030.9189   -2602.4097   -326.64414    12438.615 
   98900    297.52151    256.33544   -3044.5145   -2601.9738   -558.76071    12430.567 
   98950    288.41192    255.97176    -3032.392   -2603.4011   -158.11345    12422.143 
   99000    301.94882    256.43785   -3047.9284   -2598.8025   -506.22311    12413.471 
   99050    307.24175    251.61199    -3053.733   -2596.7341   -586.05918    12404.393 
   99100    294.44114    251.29043   -3043.0143   -2605.0554   -143.45886    12394.884 
   99150    293.74363    251.30549   -3043.5163   -2606.5949   -71.410248    12385.148 
   99200    290.88824    251.21864   -3040.6214   -2607.9472    128.60467    12375.253 
   99250     296.6792    251.29432   -3043.1439   -2601.8561    195.76643    12365.314 
   99300    310.71229    251.81362    -3060.454    -2598.293   -111.13162    12355.332 
   99350    296.98783    251.28745   -3042.9151   -2601.1682    451.43865    12345.207 
   99400    283.71433    250.93345   -3031.1151   -2609.1115    948.75232    12335.214 
   99450    288.88567    251.15866   -3038.6219   -2608.9264    868.21007    12325.613 
   99500     285.7456    250.96878   -3032.2926   -2607.2677    1163.9691    12316.412 
   99550    298.58863    251.46034    -3048.678     -2604.55    912.04103    12307.707 
   99600    301.44082    251.58288   -3052.7626   -2604.3923    836.48516    12299.415 
   99650    302.66936    251.53876    -3051.292   -2601.0942    839.46492    12291.465 
   99700    307.06676    251.72065    -3057.355   -2600.6164    791.57102    12283.841 
   99750    315.12312    252.02171   -3067.3904   -2598.6687    659.12877    12276.522 
   99800    310.47791    251.77856   -3059.2854    -2597.473    847.41881     12269.46 
   99850    314.14877    251.97543   -3065.8478   -2598.5753    758.07071    12262.696 
   99900    310.84488    251.83922   -3061.3072    -2598.949    976.06322    12256.218 
   99950    294.58511    251.30121   -3043.3737   -2605.2007    1497.1299    12250.178 
  100000    312.43863    251.98091   -3066.0302   -2601.3014    941.58035    12244.772 
Loop time of 26.8321 on 1 procs for 100000 steps with 500 atoms

Performance: 322.002 ns/day, 0.075 hours/ns, 3726.872 timesteps/s
99.8% CPU use with 1 MPI tasks x 1 OpenMP threads

MPI task timing breakdown:
Section |  min time  |  avg time  |  max time  |%varavg| %total
---------------------------------------------------------------
Pair    | 21.883     | 21.883     | 21.883     |   0.0 | 81.56
Bond    | 0.006393   | 0.006393   | 0.006393   |   0.0 |  0.02
Neigh   | 0.53396    | 0.53396    | 0.53396    |   0.0 |  1.99
Comm    | 0.7801     | 0.7801     | 0.7801     |   0.0 |  2.91
Output  | 0.018339   | 0.018339   | 0.018339   |   0.0 |  0.07
Modify  | 2.7404     | 2.7404     | 2.7404     |   0.0 | 10.21
Other   |            | 0.8697     |            |       |  3.24

Nlocal:    500 ave 500 max 500 min
Histogram: 1 0 0 0 0 0 0 0 0 0
Nghost:    1585 ave 1585 max 1585 min
Histogram: 1 0 0 0 0 0 0 0 0 0
Neighs:    14416 ave 14416 max 14416 min
Histogram: 1 0 0 0 0 0 0 0 0 0

Total # of neighbors = 14416
Ave neighs/atom = 28.832
Ave special neighs/atom = 0
Neighbor list builds = 640
Dangerous builds = 0

write_data      ${walker}/final_restart_file
write_data      8/final_restart_file

quit
